 Gaussian 16, Revision A.03,
 Gaussian 16:  EM64M-G16RevA.03 25-Dec-2016

 ----------------------------------------------------------------------
 #p opt freq b3lyp/6-31g(d,p) scrf=(iefpcm,solvent=acetonitrile) empiri
 caldispersion=gd3
 ----------------------------------------------------------------------

 -------------------
 Title Card Required
 -------------------
 Symbolic Z-matrix:
 Charge =  0 Multiplicity = 1

 SCF Done:  E(RB3LYP) =  -1.07991811662     A.U. after    5 cycles
 SCF Done:  E(RB3LYP) =  -1.10804138080     A.U. after    5 cycles
 SCF Done:  E(RB3LYP) =  -1.15549751779     A.U. after    5 cycles
 SCF Done:  E(RB3LYP) =  -1.12411518155     A.U. after    5 cycles
 SCF Done:  E(RB3LYP) =  -1.17865317615     A.U. after    4 cycles
 SCF Done:  E(RB3LYP) =  -1.17867049955     A.U. after    4 cycles
 SCF Done:  E(RB3LYP) =  -1.17867106470     A.U. after    4 cycles
 Optimization completed.
    -- Stationary point found.
 Normal termination of Gaussian 16 at Thu Jun 20 17:21:50 2019.

 ----------------------------------------------------------------------
 #P Geom=AllCheck Guess=TCheck SCRF=Check GenChk RB3LYP/6-31G(d,p) Freq
 ----------------------------------------------------------------------

 Structure from the checkpoint file:  "H2.chk"
 -------------------
 Title Card Required
 -------------------
 Charge =  0 Multiplicity = 1

                         Standard orientation:
 ---------------------------------------------------------------------
 Center     Atomic      Atomic             Coordinates (Angstroms)
 Number     Number       Type             X           Y           Z
 ---------------------------------------------------------------------
      1          1           0       -0.000000   -0.000000    0.371574
      2          1           0        0.000000   -0.000000   -0.371574
 ---------------------------------------------------------------------

 SCF Done:  E(RB3LYP) =  -1.17867106470     A.U. after    1 cycles

 The electronic state is 1-SGG.
 Alpha  occ. eigenvalues --   -0.43087
 Alpha virt. eigenvalues --    0.10316   0.57773   1.03749   1.67525   1.67525
 Alpha virt. eigenvalues --    2.37936   2.61606   2.61606   4.15239

 Mulliken charges:
               1
     1  H   -0.000000
     2  H    0.000000
 Sum of Mulliken charges =  -0.00000

 Dipole moment (field-independent basis, Debye):
    X=             -0.0000    Y=              0.0000    Z=             -0.0000  Tot=              0.0000
 Quadrupole moment (field-independent basis, Debye-Ang):
   XX=             -2.0298   YY=             -2.0298   ZZ=             -1.5071
   XY=             -0.0000   XZ=             -0.0000   YZ=              0.0000

  Exact polarizability:   0.592   0.000   0.592  -0.000   0.000   7.325
 Approx polarizability:   0.599  -0.000   0.599  -0.000   0.000   7.746

                      1
                     SGG
 Frequencies --   4458.8127
 Red. masses --      1.0078
 Frc consts  --     11.8052
 IR Inten    --      0.0000

 - Thermochemistry -
 -------------------
 Temperature   298.150 Kelvin.  Pressure   1.00000 Atm.
 Atom     1 has atomic number  1 and mass   1.00783

 Molecular mass:     2.01565 amu.
 Principal axes and moments of inertia in atomic units:
                           1         2         3
     Eigenvalues --     0.00000   0.99381   0.99381
           X           -0.00000   0.96152   0.27472
           Y            0.00000  -0.27472   0.96152
           Z            1.00000   0.00000   0.00000
 This molecule is a prolate symmetric top.
 Rotational symmetry number  2.
 Rotational temperature (Kelvin)     87.15348
 Rotational constant (GHZ):        1815.983759
 Zero-point vibrational energy      26669.6 (Joules/Mol)
                                    6.37419 (Kcal/Mol)
 Vibrational temperatures:   6415.24
          (Kelvin)

 Zero-point correction=                           0.010158 (Hartree/Particle)
 Thermal correction to Energy=                    0.012518
 Thermal correction to Enthalpy=                  0.013463
 Thermal correction to Gibbs Free Energy=        -0.001330
 Sum of electronic and zero-point Energies=             -1.168513
 Sum of electronic and thermal Energies=                -1.166153
 Sum of electronic and thermal Enthalpies=              -1.165208
 Sum of electronic and thermal Free Energies=           -1.180001

                     E (Thermal)             CV                S
                      KCal/Mol        Cal/Mol-Kelvin    Cal/Mol-Kelvin
 Total                    7.855              4.968             31.134
 Electronic               0.000              0.000              0.000
 Translational            0.889              2.981             28.080
 Rotational               0.592              1.987              3.054
 Vibrational              6.374              0.000              0.000

 Optimization completed.
    -- Stationary point found.
 Normal termination of Gaussian 16 at Thu Jun 20 17:21:54 2019.
