 Gaussian 16, Revision B.01,
 Gaussian 16:  ES64L-G16RevB.01 20-Dec-2017

 ----------------------------------------------------------------------
 #p opt td=(50-50,nstates=12,root=02) ub3lyp/6-31g(d,p) scrf=(iefpcm,so
 lvent=acetonitrile) guess=(core,mix,always) empiricaldispersion=gd3
 ----------------------------------------------------------------------

 -------------------
 Title Card Required
 -------------------
 Symbolic Z-matrix:
 Charge =  0 Multiplicity = 1

 SCF Done:  E(UB3LYP) =  -384.925582213     A.U. after   20 cycles
 Total Energy, E(TD-HF/TD-DFT) =  -384.802407527
 SCF Done:  E(UB3LYP) =  -384.917102120     A.U. after   22 cycles
 Total Energy, E(TD-HF/TD-DFT) =  -384.815076727
 SCF Done:  E(UB3LYP) =  -384.907493449     A.U. after   22 cycles
 Total Energy, E(TD-HF/TD-DFT) =  -384.817422494
 SCF Done:  E(UB3LYP) =  -384.907964941     A.U. after   23 cycles
 Total Energy, E(TD-HF/TD-DFT) =  -384.817537171
 SCF Done:  E(UB3LYP) =  -384.907996115     A.U. after   23 cycles
 Total Energy, E(TD-HF/TD-DFT) =  -384.817574217
 SCF Done:  E(UB3LYP) =  -384.908054414     A.U. after   23 cycles
 Total Energy, E(TD-HF/TD-DFT) =  -384.817582787
 SCF Done:  E(UB3LYP) =  -384.908078138     A.U. after   23 cycles

 Excitation energies and oscillator strengths:

 Excited State   1:  3.000-A      2.7919 eV  444.08 nm  f=0.0000  <S**2>=2.000
     31A -> 33A       -0.68918
     31A -> 35A        0.15552
     31B -> 33B        0.68918
     31B -> 35B       -0.15552

 Excited State   2:  3.000-A      2.4625 eV  503.50 nm  f=0.0000  <S**2>=2.000
     30A -> 34A       -0.12981
     32A -> 33A        0.69437
     30B -> 34B        0.12981
     32B -> 33B       -0.69437
     32A <- 33A        0.12435
     32B <- 33B       -0.12435
 This state for optimization and/or second-order correction.
 Total Energy, E(TD-HF/TD-DFT) =  -384.817584671
 Copying the excited state density for this state as the 1-particle RhoCI density.

 Excited State   3:  1.000-A      3.2745 eV  378.63 nm  f=0.0000  <S**2>=0.000
     31A -> 33A        0.69801
     31A -> 35A       -0.11050
     31B -> 33B        0.69801
     31B -> 35B       -0.11050

 Excited State   4:  3.000-A      3.6903 eV  335.97 nm  f=0.0000  <S**2>=2.000
     30A -> 33A       -0.69661
     30B -> 33B        0.69661

 Excited State   5:  1.000-A      4.3465 eV  285.25 nm  f=0.4126  <S**2>=0.000
     30A -> 33A       -0.21522
     32A -> 33A       -0.66601
     30B -> 33B       -0.21521
     32B -> 33B       -0.66601

 Excited State   6:  1.000-A      4.5155 eV  274.58 nm  f=0.1541  <S**2>=0.000
     30A -> 33A        0.63428
     32A -> 33A       -0.22490
     32A -> 34A        0.21423
     30B -> 33B        0.63428
     32B -> 33B       -0.22490
     32B -> 34B        0.21423

 Excited State   7:  3.000-A      4.5722 eV  271.17 nm  f=0.0000  <S**2>=2.000
     26A -> 33A       -0.10519
     28A -> 33A       -0.42623
     30A -> 34A        0.40273
     32A -> 34A        0.21080
     32A -> 35A       -0.26703
     26B -> 33B        0.10519
     28B -> 33B        0.42623
     30B -> 34B       -0.40273
     32B -> 34B       -0.21079
     32B -> 35B        0.26704

 Excited State   8:  3.000-A      4.7890 eV  258.89 nm  f=0.0000  <S**2>=2.000
     28A -> 33A        0.42720
     30A -> 34A        0.49147
     32A -> 33A        0.12568
     32A -> 34A        0.15041
     32A -> 35A        0.15284
     28B -> 33B       -0.42720
     30B -> 34B       -0.49147
     32B -> 33B       -0.12568
     32B -> 34B       -0.15041
     32B -> 35B       -0.15284

 Excited State   9:  3.000-A      5.0690 eV  244.59 nm  f=0.0000  <S**2>=2.000
     30A -> 34A        0.24815
     32A -> 34A       -0.64925
     30B -> 34B       -0.24815
     32B -> 34B        0.64925

 Excited State  10:  3.000-A      5.5854 eV  221.98 nm  f=0.0000  <S**2>=2.000
     29A -> 33A        0.68713
     31A -> 34A        0.11821
     29B -> 33B       -0.68713
     31B -> 34B       -0.11821

 Excited State  11:  1.000-A      5.7824 eV  214.42 nm  f=0.0000  <S**2>=0.000
     29A -> 33A        0.67515
     31A -> 34A        0.19580
     29B -> 33B        0.67515
     31B -> 34B        0.19580

 Excited State  12:  3.000-A      5.8155 eV  213.20 nm  f=0.0000  <S**2>=2.000
     29A -> 33A       -0.12170
     31A -> 34A        0.69135
     29B -> 33B        0.12170
     31B -> 34B       -0.69133

 Optimization completed.
    -- Stationary point found.

                         Standard orientation:
 ---------------------------------------------------------------------
 Center     Atomic      Atomic             Coordinates (Angstroms)
 Number     Number       Type             X           Y           Z
 ---------------------------------------------------------------------
      1          6           0       -1.667655   -0.180971   -0.000106
      2          8           0       -2.180748   -1.352676   -0.000081
      3          6           0       -2.569386    1.038162    0.000080
      4          1           0       -2.401213    1.666515    0.882307
      5          1           0       -2.401244    1.666746   -0.881987
      6          1           0       -3.608383    0.705251    0.000058
      7          6           0       -0.252523   -0.045409   -0.000052
      8          6           0        0.598976   -1.265865    0.000004
      9          6           0        0.432342    1.256006   -0.000033
     10          6           0        1.959021   -1.165501    0.000050
     11          1           0        0.090498   -2.221275   -0.000001
     12          6           0        1.791190    1.320451    0.000017
     13          1           0       -0.160550    2.163171   -0.000058
     14          6           0        2.604957    0.114700    0.000057
     15          1           0        2.569712   -2.063652    0.000083
     16          1           0        2.289784    2.285086    0.000033
     17          1           0        3.685845    0.190134    0.000098
 ---------------------------------------------------------------------

 The electronic state is 1-A.
 Alpha  occ. eigenvalues --  -19.13173 -10.27699 -10.21705 -10.21266 -10.21115
 Alpha  occ. eigenvalues --  -10.20857 -10.20455 -10.20302 -10.18794  -1.00696
 Alpha  occ. eigenvalues --   -0.85300  -0.77357  -0.75856  -0.72450  -0.64440
 Alpha  occ. eigenvalues --   -0.60072  -0.55251  -0.51226  -0.46816  -0.45844
 Alpha  occ. eigenvalues --   -0.44076  -0.43713  -0.43265  -0.40594  -0.38895
 Alpha  occ. eigenvalues --   -0.37418  -0.36958  -0.34129  -0.33689  -0.27066
 Alpha  occ. eigenvalues --   -0.25095  -0.24843
 Alpha virt. eigenvalues --   -0.07797  -0.00568   0.03221   0.09422   0.11902
 Alpha virt. eigenvalues --    0.14401   0.14648   0.14939   0.16447   0.18363
 Alpha virt. eigenvalues --    0.18481   0.19570   0.22034   0.24912   0.26702

  Beta  occ. eigenvalues --  -19.13173 -10.27699 -10.21705 -10.21266 -10.21115
  Beta  occ. eigenvalues --  -10.20857 -10.20455 -10.20302 -10.18794  -1.00696
  Beta  occ. eigenvalues --   -0.85300  -0.77357  -0.75856  -0.72450  -0.64440
  Beta  occ. eigenvalues --   -0.60072  -0.55251  -0.51226  -0.46816  -0.45844
  Beta  occ. eigenvalues --   -0.44076  -0.43713  -0.43265  -0.40594  -0.38895
  Beta  occ. eigenvalues --   -0.37418  -0.36958  -0.34129  -0.33689  -0.27066
  Beta  occ. eigenvalues --   -0.25095  -0.24843
  Beta virt. eigenvalues --   -0.07797  -0.00568   0.03221   0.09422   0.11902
  Beta virt. eigenvalues --    0.14401   0.14648   0.14939   0.16447   0.18363
  Beta virt. eigenvalues --    0.18481   0.19570   0.22034   0.24912   0.26702

 Mulliken charges and spin densities:
               1          2
     1  C    0.377666   0.000000
     2  O   -0.544288  -0.000000
     3  C   -0.398024  -0.000000
     4  H    0.147537   0.000000
     5  H    0.147525   0.000000
     6  H    0.132098   0.000000
     7  C    0.025000  -0.000000
     8  C   -0.089202   0.000000
     9  C   -0.102765   0.000000
    10  C   -0.095539  -0.000000
    11  H    0.119793   0.000000
    12  C   -0.106111  -0.000000
    13  H    0.119434  -0.000000
    14  C   -0.089453   0.000000
    15  H    0.116497   0.000000
    16  H    0.116483  -0.000000
    17  H    0.123350  -0.000000
 Sum of Mulliken charges =  -0.00000  -0.00000

 Dipole moment (field-independent basis, Debye):
    X=              3.1474    Y=              3.4838    Z=              0.0002  Tot=              4.6950
 Quadrupole moment (field-independent basis, Debye-Ang):
   XX=            -49.4855   YY=            -49.2858   ZZ=            -54.2711
   XY=             -8.0568   XZ=             -0.0001   YZ=             -0.0002

 Normal termination of Gaussian 16 at Fri May 10 12:42:34 2019.
