 Gaussian 16, Revision A.03,
 Gaussian 16:  ES64L-G16RevA.03 25-Dec-2016

 ----------------------------------------------------------------------
 #p opt rb3lyp/6-31g(d,p) scrf=(iefpcm,solvent=acetonitrile) empiricald
 ispersion=gd3
 ----------------------------------------------------------------------

 -------------------
 Title Card Required
 -------------------
 Symbolic Z-matrix:
 Charge =  0 Multiplicity = 1

 SCF Done:  E(RB3LYP) =  -496.768989139     A.U. after   13 cycles
 SCF Done:  E(RB3LYP) =  -496.770079697     A.U. after   10 cycles
 SCF Done:  E(RB3LYP) =  -496.769201632     A.U. after   11 cycles
 SCF Done:  E(RB3LYP) =  -496.771315360     A.U. after   11 cycles
 SCF Done:  E(RB3LYP) =  -496.774663616     A.U. after   11 cycles
 SCF Done:  E(RB3LYP) =  -496.763368699     A.U. after   13 cycles
 SCF Done:  E(RB3LYP) =  -496.782008331     A.U. after   11 cycles
 SCF Done:  E(RB3LYP) =  -496.784840428     A.U. after   11 cycles
 SCF Done:  E(RB3LYP) =  -496.790025891     A.U. after   11 cycles
 SCF Done:  E(RB3LYP) =  -496.795436080     A.U. after   11 cycles
 SCF Done:  E(RB3LYP) =  -496.813765454     A.U. after    9 cycles
 SCF Done:  E(RB3LYP) =  -496.813766950     A.U. after    9 cycles
 SCF Done:  E(RB3LYP) =  -496.813771249     A.U. after    8 cycles
 SCF Done:  E(RB3LYP) =  -496.813773390     A.U. after    8 cycles
 SCF Done:  E(RB3LYP) =  -496.813775705     A.U. after    8 cycles
 SCF Done:  E(RB3LYP) =  -496.813777613     A.U. after    8 cycles
 SCF Done:  E(RB3LYP) =  -496.813780289     A.U. after    8 cycles
 SCF Done:  E(RB3LYP) =  -496.813782817     A.U. after    8 cycles
 SCF Done:  E(RB3LYP) =  -496.813783099     A.U. after    7 cycles
 SCF Done:  E(RB3LYP) =  -496.813783245     A.U. after    7 cycles
 Optimization completed.
    -- Stationary point found.

                         Standard orientation:
 ---------------------------------------------------------------------
 Center     Atomic      Atomic             Coordinates (Angstroms)
 Number     Number       Type             X           Y           Z
 ---------------------------------------------------------------------
      1          6           0        1.174525    1.000536   -0.526028
      2          1           0        0.808324   -2.736818    0.004993
      3          8           0        1.845899    0.471493   -1.409150
      4          7           0        1.586773   -1.453671    1.389425
      5          1           0        1.784460   -2.053481    2.186806
      6          7           0        1.698044   -2.280003    0.209508
      7          1           0        1.866545   -1.640452   -0.564871
      8          1           0        0.629782   -1.120989    1.511832
      9          6           0        1.775422    2.069243    0.359999
     10          1           0        1.172368    2.982251    0.352491
     11          1           0        1.818720    1.704542    1.391286
     12          1           0        2.785259    2.291188    0.014422
     13          6           0       -0.243943    0.581240   -0.299124
     14          6           0       -0.797965   -0.393376   -1.146404
     15          6           0       -1.023976    1.101543    0.746515
     16          6           0       -2.100962   -0.841433   -0.951615
     17          1           0       -0.189176   -0.785129   -1.953608
     18          6           0       -2.329543    0.650376    0.942288
     19          1           0       -0.617072    1.851942    1.415222
     20          6           0       -2.868810   -0.321170    0.095754
     21          1           0       -2.519950   -1.594468   -1.611850
     22          1           0       -2.923941    1.055288    1.755242
     23          1           0       -3.884724   -0.671853    0.250396
 ---------------------------------------------------------------------

 The electronic state is 1-A.
 Alpha  occ. eigenvalues --  -19.14391 -14.33536 -14.33192 -10.28410 -10.20548
 Alpha  occ. eigenvalues --  -10.20494 -10.20379 -10.20110 -10.20022 -10.19965
 Alpha  occ. eigenvalues --  -10.18623  -1.04136  -0.93584  -0.86495  -0.77621
 Alpha  occ. eigenvalues --   -0.75575  -0.74020  -0.73123  -0.63240  -0.61117
 Alpha  occ. eigenvalues --   -0.55498  -0.51428  -0.48929  -0.48292  -0.46782
 Alpha  occ. eigenvalues --   -0.46254  -0.44865  -0.44118  -0.43462  -0.42861
 Alpha  occ. eigenvalues --   -0.41886  -0.39099  -0.38016  -0.36118  -0.35581
 Alpha  occ. eigenvalues --   -0.34900  -0.26658  -0.26242  -0.25893  -0.24787
 Alpha  occ. eigenvalues --   -0.24435
 Alpha virt. eigenvalues --   -0.06172  -0.01219   0.03506   0.08503   0.09741
 Alpha virt. eigenvalues --    0.11030   0.12700   0.14847   0.15048   0.15921
 Alpha virt. eigenvalues --    0.16608   0.16905   0.18072   0.18882   0.19670

 Mulliken charges:
               1
     1  C    0.422398
     2  H    0.252599
     3  O   -0.512237
     4  N   -0.527349
     5  H    0.266263
     6  N   -0.537349
     7  H    0.270997
     8  H    0.256780
     9  C   -0.399571
    10  H    0.143545
    11  H    0.152406
    12  H    0.131605
    13  C    0.037310
    14  C   -0.114537
    15  C   -0.128504
    16  C   -0.098929
    17  H    0.114666
    18  C   -0.101400
    19  H    0.115352
    20  C   -0.085258
    21  H    0.112760
    22  H    0.113712
    23  H    0.114741
 Sum of Mulliken charges =   0.00000

 Dipole moment (field-independent basis, Debye):
    X=             -5.4148    Y=              1.1726    Z=              2.5193  Tot=              6.0862
 Quadrupole moment (field-independent basis, Debye-Ang):
   XX=            -70.5555   YY=            -61.9796   ZZ=            -63.1176
   XY=              7.8563   XZ=              1.7903   YZ=              3.3219

 Normal termination of Gaussian 16 at Tue Jun 11 10:49:02 2019.
