 Gaussian 16, Revision B.01,
 Gaussian 16:  ES64L-G16RevB.01 20-Dec-2017

 ----------------------------------------------------------------------
 #p opt freq ub3lyp/6-31g(d,p) scrf=(iefpcm,solvent=acetonitrile) empir
 icaldispersion=gd3
 ----------------------------------------------------------------------

 -------------------
 Title Card Required
 -------------------
 Symbolic Z-matrix:
 Charge =  0 Multiplicity = 2

 SCF Done:  E(UB3LYP) =  -770.391583550     A.U. after   22 cycles
 SCF Done:  E(UB3LYP) =  -770.391798533     A.U. after   17 cycles
 SCF Done:  E(UB3LYP) =  -770.391939376     A.U. after   17 cycles
 SCF Done:  E(UB3LYP) =  -770.392014826     A.U. after   16 cycles
 SCF Done:  E(UB3LYP) =  -770.392179797     A.U. after   18 cycles
 SCF Done:  E(UB3LYP) =  -770.392454961     A.U. after   18 cycles
 SCF Done:  E(UB3LYP) =  -770.394151341     A.U. after   19 cycles
 SCF Done:  E(UB3LYP) =  -770.394526720     A.U. after   18 cycles
 SCF Done:  E(UB3LYP) =  -770.400258934     A.U. after   15 cycles
 SCF Done:  E(UB3LYP) =  -770.416596461     A.U. after   16 cycles
 SCF Done:  E(UB3LYP) =  -770.430946439     A.U. after   12 cycles
 SCF Done:  E(UB3LYP) =  -770.430956091     A.U. after   11 cycles
 SCF Done:  E(UB3LYP) =  -770.430961390     A.U. after   11 cycles
 SCF Done:  E(UB3LYP) =  -770.430963105     A.U. after    9 cycles
 SCF Done:  E(UB3LYP) =  -770.430963624     A.U. after    8 cycles
 SCF Done:  E(UB3LYP) =  -770.430963751     A.U. after    7 cycles
 SCF Done:  E(UB3LYP) =  -770.430963814     A.U. after    7 cycles
 SCF Done:  E(UB3LYP) =  -770.430963876     A.U. after    7 cycles
 SCF Done:  E(UB3LYP) =  -770.430963896     A.U. after    6 cycles
 Optimization completed.
    -- Stationary point found.

 1\1\GINC-GRA690\FOpt\UB3LYP\6-31G(d,p)\C16H17O2(2)\RZK\14-May-2019\0\\
 #p opt freq ub3lyp/6-31g(d,p) scrf=(iefpcm,solvent=acetonitrile) empir
 icaldispersion=gd3\\Title Card Required\\0,2\C,-1.0392381011,-1.597567
 5676,-1.1375777868\C,0.9754185599,-1.2299083058,1.1258590607\O,-1.3015
 512391,-2.6612004176,-0.5681848088\C,-0.042118855,-1.5644602097,-2.273
 155065\H,-0.4805729536,-1.1050361372,-3.1644779192\H,0.8326651396,-0.9
 696789417,-1.9908052504\H,0.2766772094,-2.5823275426,-2.4977435314\C,-
 0.0909858405,-1.338862872,2.1654843468\H,-0.5498396733,-0.3780551309,2

 Normal termination of Gaussian 16 at Tue May 14 12:58:33 2019.

 ----------------------------------------------------------------------
 #P Geom=AllCheck Guess=TCheck SCRF=Check GenChk UB3LYP/6-31G(d,p) Freq
 ----------------------------------------------------------------------

 Structure from the checkpoint file:  "AH-A.chk"
 -------------------
 Title Card Required
 -------------------
 Charge =  0 Multiplicity = 2

                         Standard orientation:
 ---------------------------------------------------------------------
 Center     Atomic      Atomic             Coordinates (Angstroms)
 Number     Number       Type             X           Y           Z
 ---------------------------------------------------------------------
      1          6           0       -1.368919   -1.431835   -0.989944
      2          6           0        0.789852   -1.313189    1.164770
      3          8           0       -1.791439   -2.394287   -0.342259
      4          6           0       -0.440587   -1.648628   -2.163008
      5          1           0       -0.832274   -1.168074   -3.064904
      6          1           0        0.540815   -1.210382   -1.954381
      7          1           0       -0.323895   -2.719039   -2.332504
      8          6           0       -0.225124   -1.163526    2.249821
      9          1           0       -0.489390   -0.122841    2.435389
     10          1           0       -1.144679   -1.691063    1.968751
     11          1           0        0.133933   -1.604216    3.190096
     12          6           0       -1.755372   -0.040415   -0.621525
     13          6           0       -2.772124    0.149322    0.330360
     14          6           0       -1.110396    1.082070   -1.166655
     15          6           0       -3.134757    1.431515    0.730488
     16          1           0       -3.264153   -0.724002    0.744137
     17          6           0       -1.467820    2.365750   -0.757548
     18          1           0       -0.311451    0.959070   -1.888912
     19          6           0       -2.480224    2.543367    0.188663
     20          1           0       -3.923639    1.568381    1.463777
     21          1           0       -0.952283    3.226243   -1.172254
     22          1           0       -2.758214    3.544434    0.504533
     23          6           0        1.649455   -0.305153    0.657644
     24          6           0        2.585480   -0.601563   -0.379538
     25          6           0        1.597405    1.041954    1.121650
     26          6           0        3.392058    0.389774   -0.920758
     27          1           0        2.656764   -1.620114   -0.742776
     28          6           0        2.411601    2.020268    0.569844
     29          1           0        0.906026    1.316120    1.910255
     30          6           0        3.315546    1.710691   -0.456959
     31          1           0        4.091150    0.134011   -1.712427
     32          1           0        2.341993    3.039476    0.939847
     33          1           0        3.947836    2.482378   -0.884649
     34          8           0        0.962020   -2.576441    0.666801
     35          1           0        0.100361   -3.026968    0.655857
 ---------------------------------------------------------------------

 SCF Done:  E(UB3LYP) =  -770.430963896     A.U. after    1 cycles

 The electronic state is 2-A.
 Alpha  occ. eigenvalues --  -19.17721 -19.14279 -10.28212 -10.24959 -10.20177
 Alpha  occ. eigenvalues --  -10.20124 -10.20067 -10.19792 -10.19660 -10.19653
 Alpha  occ. eigenvalues --  -10.19521 -10.18824 -10.18668 -10.18621 -10.18539
 Alpha  occ. eigenvalues --  -10.18528 -10.18416 -10.18370  -1.05861  -1.03788
 Alpha  occ. eigenvalues --   -0.86178  -0.85111  -0.77983  -0.77369  -0.75256
 Alpha  occ. eigenvalues --   -0.74309  -0.72945  -0.72484  -0.64866  -0.63041
 Alpha  occ. eigenvalues --   -0.60821  -0.59897  -0.57310  -0.55279  -0.51859
 Alpha  occ. eigenvalues --   -0.51173  -0.49781  -0.46615  -0.46490  -0.46027
 Alpha  occ. eigenvalues --   -0.45871  -0.44546  -0.44159  -0.43000  -0.42697
 Alpha  occ. eigenvalues --   -0.42378  -0.41748  -0.41545  -0.38989  -0.38744
 Alpha  occ. eigenvalues --   -0.38220  -0.37526  -0.36802  -0.35852  -0.35533
 Alpha  occ. eigenvalues --   -0.34801  -0.34584  -0.33927  -0.32384  -0.27179
 Alpha  occ. eigenvalues --   -0.26088  -0.25897  -0.25565  -0.25135  -0.15317
 Alpha virt. eigenvalues --   -0.05973  -0.00891  -0.00062   0.02646   0.03588
 Alpha virt. eigenvalues --    0.08477   0.09831   0.11249   0.12346   0.13478
 Alpha virt. eigenvalues --    0.13606   0.15010   0.15187   0.15843   0.15962

  Beta  occ. eigenvalues --  -19.17458 -19.14256 -10.28193 -10.24045 -10.20180
  Beta  occ. eigenvalues --  -10.20117 -10.20044 -10.19775 -10.19714 -10.19669
  Beta  occ. eigenvalues --  -10.19661 -10.18801 -10.18764 -10.18534 -10.18477
  Beta  occ. eigenvalues --  -10.18370 -10.18253 -10.18219  -1.05167  -1.03699
  Beta  occ. eigenvalues --   -0.86157  -0.84780  -0.77470  -0.77062  -0.75238
  Beta  occ. eigenvalues --   -0.74025  -0.72909  -0.72170  -0.63960  -0.62992
  Beta  occ. eigenvalues --   -0.60809  -0.59714  -0.56990  -0.55259  -0.51613
  Beta  occ. eigenvalues --   -0.51143  -0.49045  -0.46575  -0.46232  -0.45771
  Beta  occ. eigenvalues --   -0.45284  -0.44532  -0.44084  -0.42730  -0.42616
  Beta  occ. eigenvalues --   -0.41965  -0.41662  -0.41302  -0.38963  -0.38406
  Beta  occ. eigenvalues --   -0.37684  -0.37225  -0.36279  -0.35799  -0.35318
  Beta  occ. eigenvalues --   -0.34591  -0.34451  -0.33430  -0.31845  -0.26416
  Beta  occ. eigenvalues --   -0.25969  -0.25631  -0.24922  -0.24481
  Beta virt. eigenvalues --   -0.07460  -0.04791  -0.00816   0.00548   0.03502
  Beta virt. eigenvalues --    0.05186   0.08661   0.09902   0.11361   0.12403
  Beta virt. eigenvalues --    0.13549   0.13804   0.15056   0.15500   0.15957

 Mulliken charges and spin densities:
               1          2
     1  C    0.395971   0.013936
     2  C    0.244290   0.595707
     3  O   -0.532437   0.009202
     4  C   -0.397868  -0.000739
     5  H    0.140982  -0.000154
     6  H    0.150882   0.002055
     7  H    0.128167   0.000032
     8  C   -0.377905  -0.050959
     9  H    0.130637   0.002586
    10  H    0.130137   0.020659
    11  H    0.132978   0.033913
    12  C    0.058401  -0.007481
    13  C   -0.110976   0.016252
    14  C   -0.112278   0.011349
    15  C   -0.101713  -0.007949
    16  H    0.111740  -0.000755
    17  C   -0.104216  -0.007884
    18  H    0.111440  -0.000512
    19  C   -0.088839   0.017723
    20  H    0.109163   0.000275
    21  H    0.109739   0.000279
    22  H    0.111087  -0.000802
    23  C    0.097492  -0.160508
    24  C   -0.143848   0.226223
    25  C   -0.137592   0.218619
    26  C   -0.102264  -0.119491
    27  H    0.102715  -0.009990
    28  C   -0.108720  -0.117653
    29  H    0.093320  -0.009575
    30  C   -0.112108   0.252979
    31  H    0.096238   0.004271
    32  H    0.096438   0.004180
    33  H    0.094111  -0.011740
    34  O   -0.554380   0.069145
    35  H    0.339217   0.006809
 Sum of Mulliken charges =  -0.00000   1.00000

 Dipole moment (field-independent basis, Debye):
    X=             -1.1802    Y=              3.0016    Z=             -0.3401  Tot=              3.2432
 Quadrupole moment (field-independent basis, Debye-Ang):
   XX=           -108.1719   YY=           -102.0390   ZZ=            -97.9712
   XY=             -2.7879   XZ=             -7.4637   YZ=              0.9900

  Exact polarizability: 245.043  27.221 290.547 -68.032   0.536 189.602
 Approx polarizability: 272.018  40.250 368.551 -88.675  -3.764 227.425

                      1                      2                      3
                      A                      A                      A
 Frequencies --     17.0876                35.6061                47.2169
 Red. masses --      4.9880                 4.4146                 4.8792
 Frc consts  --      0.0009                 0.0033                 0.0064
 IR Inten    --      0.9291                 1.2155                 0.1974

                      4                      5                      6
                      A                      A                      A
 Frequencies --     58.6706                65.2739               110.3804
 Red. masses --      3.8228                 4.4940                 1.7987
 Frc consts  --      0.0078                 0.0113                 0.0129
 IR Inten    --      0.0891                 3.3624                 1.7145

                      7                      8                      9
                      A                      A                      A
 Frequencies --    125.2997               131.0437               162.4486
 Red. masses --      2.7063                 4.0756                 3.5466
 Frc consts  --      0.0250                 0.0412                 0.0551
 IR Inten    --     13.2211                 2.1474                10.8631

                     10                     11                     12
                      A                      A                      A
 Frequencies --    166.2388               185.2018               202.3487
 Red. masses --      3.3948                 1.8884                 1.3555
 Frc consts  --      0.0553                 0.0382                 0.0327
 IR Inten    --     11.6315                 1.6177                 6.5450

                     13                     14                     15
                      A                      A                      A
 Frequencies --    233.0882               242.6920               367.9289
 Red. masses --      3.6077                 3.4764                 3.1061
 Frc consts  --      0.1155                 0.1206                 0.2477
 IR Inten    --      6.8260                10.5008                53.2458

                     16                     17                     18
                      A                      A                      A
 Frequencies --    372.3464               375.9301               405.1727
 Red. masses --      3.2582                 4.4277                 1.6427
 Frc consts  --      0.2661                 0.3687                 0.1589
 IR Inten    --     64.7805                10.2861               200.9100

                     19                     20                     21
                      A                      A                      A
 Frequencies --    415.0374               419.6160               433.1484
 Red. masses --      2.8172                 3.0525                 2.7195
 Frc consts  --      0.2859                 0.3167                 0.3006
 IR Inten    --      7.9397                 0.6259                72.9545

                     22                     23                     24
                      A                      A                      A
 Frequencies --    479.5313               481.3316               517.3068
 Red. masses --      3.9639                 4.1288                 3.2224
 Frc consts  --      0.5370                 0.5636                 0.5081
 IR Inten    --      5.6098                 5.8943                 2.0754

                     25                     26                     27
                      A                      A                      A
 Frequencies --    543.9231               600.1508               605.6671
 Red. masses --      3.6777                 4.3158                 2.5046
 Frc consts  --      0.6411                 0.9159                 0.5413
 IR Inten    --      8.1342                33.9179                27.6032

                     28                     29                     30
                      A                      A                      A
 Frequencies --    627.0783               629.7388               690.4415
 Red. masses --      6.4189                 6.4100                 1.8445
 Frc consts  --      1.4872                 1.4977                 0.5181
 IR Inten    --      0.0421                 1.3888                31.8889

                     31                     32                     33
                      A                      A                      A
 Frequencies --    702.1082               738.2963               748.1435
 Red. masses --      1.8927                 4.9106                 4.9991
 Frc consts  --      0.5497                 1.5770                 1.6486
 IR Inten    --     37.3145                 7.6503                 0.7146

                     34                     35                     36
                      A                      A                      A
 Frequencies --    755.2607               776.8498               830.2782
 Red. masses --      1.9237                 1.6885                 1.2657
 Frc consts  --      0.6465                 0.6004                 0.5141
 IR Inten    --     60.6653                35.5902                 0.3273

                     37                     38                     39
                      A                      A                      A
 Frequencies --    863.0615               887.5064               946.9300
 Red. masses --      1.2526                 1.4065                 1.3529
 Frc consts  --      0.5497                 0.6528                 0.7148
 IR Inten    --      0.5100                11.0136                 5.2002

                     40                     41                     42
                      A                      A                      A
 Frequencies --    968.1399               970.9758               972.7379
 Red. masses --      1.3280                 2.2084                 2.7409
 Frc consts  --      0.7334                 1.2267                 1.5281
 IR Inten    --      0.5721                21.1253                62.3793

                     43                     44                     45
                      A                      A                      A
 Frequencies --    988.7206               989.4421               991.9999
 Red. masses --      1.2560                 1.3744                 3.9027
 Frc consts  --      0.7234                 0.7927                 2.2628
 IR Inten    --      0.6624                 0.6301                 9.7388

                     46                     47                     48
                      A                      A                      A
 Frequencies --   1012.4184              1014.6406              1028.9540
 Red. masses --      1.2967                 5.7790                 1.4058
 Frc consts  --      0.7831                 3.5053                 0.8769
 IR Inten    --      0.8628                 0.8880                29.7577

                     49                     50                     51
                      A                      A                      A
 Frequencies --   1041.1847              1045.6875              1049.7910
 Red. masses --      2.3463                 1.8743                 2.5132
 Frc consts  --      1.4986                 1.2075                 1.6318
 IR Inten    --     25.8066                14.3298                 6.3491

                     52                     53                     54
                      A                      A                      A
 Frequencies --   1078.4576              1102.3921              1112.4186
 Red. masses --      1.7918                 2.1563                 1.6872
 Frc consts  --      1.2278                 1.5439                 1.2301
 IR Inten    --     32.6146                 3.1323                19.4408

                     55                     56                     57
                      A                      A                      A
 Frequencies --   1119.5508              1184.1366              1192.6340
 Red. masses --      1.5514                 1.1245                 1.1042
 Frc consts  --      1.1457                 0.9290                 0.9254
 IR Inten    --     11.1289                 1.4352                 1.5084

                     58                     59                     60
                      A                      A                      A
 Frequencies --   1206.7257              1213.2520              1253.2535
 Red. masses --      1.2049                 1.1472                 1.4680
 Frc consts  --      1.0337                 0.9949                 1.3585
 IR Inten    --     20.8035                18.5175               141.8275

                     61                     62                     63
                      A                      A                      A
 Frequencies --   1274.8511              1294.6717              1345.7427
 Red. masses --      3.5516                 3.4118                 2.0512
 Frc consts  --      3.4009                 3.3694                 2.1887
 IR Inten    --    112.0176               274.6529                 4.3333

                     64                     65                     66
                      A                      A                      A
 Frequencies --   1347.4536              1362.9764              1366.2431
 Red. masses --      2.9637                 1.7831                 2.8791
 Frc consts  --      3.1704                 1.9516                 3.1664
 IR Inten    --    131.5735                 1.8555                 7.1155

                     67                     68                     69
                      A                      A                      A
 Frequencies --   1397.0167              1422.5028              1445.1111
 Red. masses --      1.3477                 1.2901                 1.5182
 Frc consts  --      1.5497                 1.5381                 1.8680
 IR Inten    --     79.4162                10.8661                21.4182

                     70                     71                     72
                      A                      A                      A
 Frequencies --   1477.1065              1479.9434              1482.1745
 Red. masses --      1.0706                 1.1052                 2.2944
 Frc consts  --      1.3762                 1.4263                 2.9697
 IR Inten    --     13.2696                 7.7362                22.8852

                     73                     74                     75
                      A                      A                      A
 Frequencies --   1486.6579              1490.5132              1498.0820
 Red. masses --      2.0881                 1.1203                 1.4105
 Frc consts  --      2.7191                 1.4665                 1.8651
 IR Inten    --     29.6436                22.9128                10.9058

                     76                     77                     78
                      A                      A                      A
 Frequencies --   1533.1469              1542.4666              1585.8111
 Red. masses --      2.1497                 2.2214                 4.1646
 Frc consts  --      2.9772                 3.1139                 6.1706
 IR Inten    --      5.7327                14.5463                 1.6513

                     79                     80                     81
                      A                      A                      A
 Frequencies --   1618.9125              1627.8229              1649.8857
 Red. masses --      4.9191                 5.2993                 5.4255
 Frc consts  --      7.5960                 8.2734                 8.7015
 IR Inten    --     29.7030                28.7149                58.1387

                     82                     83                     84
                      A                      A                      A
 Frequencies --   1711.8818              3015.1492              3052.4912
 Red. masses --      9.2661                 1.0460                 1.0367
 Frc consts  --     15.9990                 5.6029                 5.6913
 IR Inten    --    294.3522                63.9479                15.8227

                     85                     86                     87
                      A                      A                      A
 Frequencies --   3072.8930              3121.2485              3158.9740
 Red. masses --      1.0956                 1.0999                 1.0956
 Frc consts  --      6.0951                 6.3136                 6.4415
 IR Inten    --     29.0361                 1.5660                13.7103

                     88                     89                     90
                      A                      A                      A
 Frequencies --   3166.8961              3176.5819              3182.4306
 Red. masses --      1.1035                 1.0858                 1.0894
 Frc consts  --      6.5209                 6.4553                 6.5006
 IR Inten    --     20.3758                 8.0416                25.5648

                     91                     92                     93
                      A                      A                      A
 Frequencies --   3186.0048              3196.0775              3202.3478
 Red. masses --      1.0861                 1.0896                 1.0933
 Frc consts  --      6.4956                 6.5575                 6.6059
 IR Inten    --      0.8850                15.9476                46.0918

                     94                     95                     96
                      A                      A                      A
 Frequencies --   3206.2337              3212.9785              3217.6484
 Red. masses --      1.0937                 1.0927                 1.0931
 Frc consts  --      6.6243                 6.6462                 6.6677
 IR Inten    --     30.1984                28.7788                21.8249

                     97                     98                     99
                      A                      A                      A
 Frequencies --   3219.8683              3220.5976              3710.7973
 Red. masses --      1.0927                 1.0954                 1.0660
 Frc consts  --      6.6748                 6.6939                 8.6486
 IR Inten    --      6.4511                 5.8153                86.8311

 - Thermochemistry -
 -------------------
 Temperature   298.150 Kelvin.  Pressure   1.00000 Atm.
 Atom     1 has atomic number  6 and mass  12.00000

 Molecular mass:   241.12285 amu.
 Principal axes and moments of inertia in atomic units:
                           1         2         3
     Eigenvalues --  3344.199134685.982315999.89180
           X            0.99974   0.00073  -0.02281
           Y           -0.00051   0.99995   0.00984
           Z            0.02282  -0.00983   0.99969
 This molecule is an asymmetric top.
 Rotational symmetry number  1.
 Warning -- assumption of classical behavior for rotation
           may cause significant error
 Rotational temperatures (Kelvin)      0.02590     0.01848     0.01444
 Rotational constants (GHZ):           0.53966     0.38514     0.30080
 Zero-point vibrational energy     755400.4 (Joules/Mol)
                                  180.54503 (Kcal/Mol)
 Warning -- explicit consideration of  27 degrees of freedom as
           vibrations may cause significant error
 Vibrational temperatures:     24.59    51.23    67.93    84.41    93.91
          (Kelvin)            158.81   180.28   188.54   233.73   239.18
                              266.46   291.13   335.36   349.18   529.37
                              535.72   540.88   582.95   597.15   603.73
                              623.20   689.94   692.53   744.29   782.58
                              863.48   871.42   902.23   906.05   993.39
                             1010.18  1062.24  1076.41  1086.65  1117.71
                             1194.59  1241.75  1276.92  1362.42  1392.94
                             1397.02  1399.55  1422.55  1423.59  1427.27
                             1456.64  1459.84  1480.44  1498.03  1504.51
                             1510.42  1551.66  1586.10  1600.52  1610.78
                             1703.71  1715.93  1736.21  1745.60  1803.15
                             1834.23  1862.74  1936.22  1938.69  1961.02
                             1965.72  2010.00  2046.66  2079.19  2125.23
                             2129.31  2132.52  2138.97  2144.52  2155.41
                             2205.86  2219.27  2281.63  2329.25  2342.07
                             2373.82  2463.02  4338.13  4391.85  4421.21
                             4490.78  4545.06  4556.46  4570.39  4578.81
                             4583.95  4598.44  4607.46  4613.06  4622.76
                             4629.48  4632.67  4633.72  5339.01

 Zero-point correction=                           0.287717 (Hartree/Particle)
 Thermal correction to Energy=                    0.305498
 Thermal correction to Enthalpy=                  0.306442
 Thermal correction to Gibbs Free Energy=         0.239826
 Sum of electronic and zero-point Energies=           -770.143247
 Sum of electronic and thermal Energies=              -770.125466
 Sum of electronic and thermal Enthalpies=            -770.124521
 Sum of electronic and thermal Free Energies=         -770.191138

                     E (Thermal)             CV                S
                      KCal/Mol        Cal/Mol-Kelvin    Cal/Mol-Kelvin
 Total                  191.703             67.133            140.207
 Electronic               0.000              0.000              1.377
 Translational            0.889              2.981             42.342
 Rotational               0.889              2.981             32.908
 Vibrational            189.926             61.172             63.580
 Vibration     1          0.593              1.986              6.947
 Vibration     2          0.594              1.982              5.490
 Vibration     3          0.595              1.979              4.931
 Vibration     4          0.596              1.974              4.501
 Vibration     5          0.597              1.971              4.291
 Vibration     6          0.606              1.941              3.262
 Vibration     7          0.610              1.928              3.017
 Vibration     8          0.612              1.922              2.931
 Vibration     9          0.623              1.888              2.521
 Vibration    10          0.624              1.884              2.478
 Vibration    11          0.631              1.860              2.275
 Vibration    12          0.639              1.837              2.112
 Vibration    13          0.654              1.790              1.855
 Vibration    14          0.659              1.775              1.783
 Vibration    15          0.741              1.538              1.088
 Vibration    16          0.744              1.529              1.070
 Vibration    17          0.747              1.521              1.055
 Vibration    18          0.770              1.459              0.944
 Vibration    19          0.778              1.438              0.909
 Vibration    20          0.782              1.428              0.893
 Vibration    21          0.794              1.398              0.848
 Vibration    22          0.836              1.295              0.711
 Vibration    23          0.838              1.291              0.706
 Vibration    24          0.872              1.212              0.616
 Vibration    25          0.899              1.153              0.557
 Vibration    26          0.958              1.031              0.449
 Vibration    27          0.964              1.020              0.440

                           ! Non-Optimized Parameters !

 1\1\GINC-GRA690\Freq\UB3LYP\6-31G(d,p)\C16H17O2(2)\RZK\14-May-2019\0\\
 #P Geom=AllCheck Guess=TCheck SCRF=Check GenChk UB3LYP/6-31G(d,p) Freq
 \\Title Card Required\\0,2\C,-1.0392381011,-1.5975675676,-1.1375777868
 \C,0.9754185599,-1.2299083058,1.1258590607\O,-1.3015512391,-2.66120041
 76,-0.5681848088\C,-0.042118855,-1.5644602097,-2.273155065\H,-0.480572
 9536,-1.1050361372,-3.1644779192\H,0.8326651396,-0.9696789417,-1.99080
 52504\H,0.2766772094,-2.5823275426,-2.4977435314\C,-0.0909858405,-1.33
 8862872,2.1654843468\H,-0.5498396733,-0.3780551309,2.3969973592\H,-0.8

 Normal termination of Gaussian 16 at Tue May 14 13:11:36 2019.
