 Gaussian 16, Revision A.03,
 Gaussian 16:  ES64L-G16RevA.03 25-Dec-2016

 ----------------------------------------------------------------------
 #p opt=modredundant ub3lyp/6-31g(d,p) scrf=(iefpcm,solvent=acetonitril
 e) empiricaldispersion=gd3
 ----------------------------------------------------------------------

 -------------------
 Title Card Required
 -------------------
 Symbolic Z-matrix:
 Charge =  0 Multiplicity = 3

 SCF Done:  E(UB3LYP) =  -496.745538764     A.U. after   16 cycles
 SCF Done:  E(UB3LYP) =  -496.746039289     A.U. after   12 cycles
 SCF Done:  E(UB3LYP) =  -496.746234741     A.U. after   12 cycles
 SCF Done:  E(UB3LYP) =  -496.746367670     A.U. after   12 cycles
 SCF Done:  E(UB3LYP) =  -496.746443335     A.U. after   11 cycles
 SCF Done:  E(UB3LYP) =  -496.746634563     A.U. after   14 cycles
 SCF Done:  E(UB3LYP) =  -496.746739020     A.U. after   14 cycles
 SCF Done:  E(UB3LYP) =  -496.746660024     A.U. after   12 cycles
 SCF Done:  E(UB3LYP) =  -496.746838087     A.U. after   13 cycles
 SCF Done:  E(UB3LYP) =  -496.746945302     A.U. after   14 cycles
 SCF Done:  E(UB3LYP) =  -496.747452256     A.U. after   10 cycles
 SCF Done:  E(UB3LYP) =  -496.747453926     A.U. after   10 cycles
 SCF Done:  E(UB3LYP) =  -496.747455037     A.U. after   10 cycles
 SCF Done:  E(UB3LYP) =  -496.747455586     A.U. after    9 cycles
 SCF Done:  E(UB3LYP) =  -496.747455464     A.U. after    9 cycles
 SCF Done:  E(UB3LYP) =  -496.747455574     A.U. after    7 cycles
 SCF Done:  E(UB3LYP) =  -496.747455689     A.U. after    8 cycles
 SCF Done:  E(UB3LYP) =  -496.747455729     A.U. after    7 cycles
 SCF Done:  E(UB3LYP) =  -496.747455781     A.U. after    8 cycles
 SCF Done:  E(UB3LYP) =  -496.747455806     A.U. after    7 cycles
 Optimization completed.
    -- Stationary point found.

                         Standard orientation:
 ---------------------------------------------------------------------
 Center     Atomic      Atomic             Coordinates (Angstroms)
 Number     Number       Type             X           Y           Z
 ---------------------------------------------------------------------
      1          6           0        0.278869    1.483314   -0.238304
      2          1           0        4.174116   -2.133470    0.885753
      3          8           0        1.535719    1.235679   -0.681923
      4          7           0        2.544756   -1.117258    0.176206
      5          1           0        1.859015    0.321573   -0.415739
      6          7           0        3.795220   -1.221035    0.651598
      7          1           0        4.457474   -0.574067    0.242287
      8          1           0        2.012478   -1.928358    0.497129
      9          6           0        0.043777    2.922461    0.105125
     10          1           0        0.674547    3.550603   -0.531959
     11          1           0       -0.997641    3.221589   -0.037514
     12          1           0        0.315894    3.148009    1.147251
     13          6           0       -0.700994    0.458823   -0.138137
     14          6           0       -0.497741   -0.832170   -0.718578
     15          6           0       -1.942049    0.671029    0.538673
     16          6           0       -1.455470   -1.829820   -0.609861
     17          1           0        0.409576   -1.022836   -1.280711
     18          6           0       -2.888808   -0.338437    0.638152
     19          1           0       -2.141098    1.630328    1.005139
     20          6           0       -2.660446   -1.602217    0.072219
     21          1           0       -1.270116   -2.796586   -1.071225
     22          1           0       -3.817533   -0.144521    1.168748
     23          1           0       -3.405135   -2.387546    0.155858
 ---------------------------------------------------------------------

 The electronic state is 3-A.
 Alpha  occ. eigenvalues --  -19.14823 -14.39773 -14.36484 -10.23564 -10.18796
 Alpha  occ. eigenvalues --  -10.18223 -10.18216 -10.18156 -10.18038 -10.17904
 Alpha  occ. eigenvalues --  -10.17790  -1.03101  -0.99924  -0.84391  -0.76986
 Alpha  occ. eigenvalues --   -0.75270  -0.73716  -0.71882  -0.62984  -0.59181
 Alpha  occ. eigenvalues --   -0.57393  -0.55910  -0.52991  -0.49234  -0.47783
 Alpha  occ. eigenvalues --   -0.44973  -0.43509  -0.43107  -0.41325  -0.40596
 Alpha  occ. eigenvalues --   -0.40386  -0.38445  -0.37451  -0.35948  -0.34810
 Alpha  occ. eigenvalues --   -0.33119  -0.32678  -0.30000  -0.25906  -0.25078
 Alpha  occ. eigenvalues --   -0.20119  -0.13841
 Alpha virt. eigenvalues --    0.00382   0.03209   0.07294   0.09865   0.11272
 Alpha virt. eigenvalues --    0.12711   0.14080   0.14912   0.15869   0.17153
 Alpha virt. eigenvalues --    0.17769   0.18561   0.19431   0.20938   0.23732

  Beta  occ. eigenvalues --  -19.14495 -14.39009 -14.35062 -10.22665 -10.18963
  Beta  occ. eigenvalues --  -10.18362 -10.18338 -10.17886 -10.17852 -10.17750
  Beta  occ. eigenvalues --  -10.17567  -1.02218  -0.97745  -0.84049  -0.76171
  Beta  occ. eigenvalues --   -0.73478  -0.72447  -0.71470  -0.62026  -0.59001
  Beta  occ. eigenvalues --   -0.56859  -0.55190  -0.52709  -0.48198  -0.47248
  Beta  occ. eigenvalues --   -0.44693  -0.43130  -0.41773  -0.41157  -0.40021
  Beta  occ. eigenvalues --   -0.38141  -0.36859  -0.35214  -0.34172  -0.34059
  Beta  occ. eigenvalues --   -0.32666  -0.31171  -0.28888  -0.24409  -0.24192
  Beta virt. eigenvalues --   -0.05277  -0.04899   0.01026   0.05793   0.07842
  Beta virt. eigenvalues --    0.10146   0.11798   0.12869   0.14614   0.15029
  Beta virt. eigenvalues --    0.16426   0.17482   0.18094   0.19322   0.19942

 Mulliken charges and spin densities:
               1          2
     1  C    0.231703   0.583758
     2  H    0.306745  -0.004263
     3  O   -0.593117   0.094043
     4  N   -0.430487   0.710915
     5  H    0.381868  -0.009374
     6  N   -0.370702   0.332064
     7  H    0.313671  -0.007619
     8  H    0.274714  -0.020694
     9  C   -0.369983  -0.050232
    10  H    0.120968   0.012197
    11  H    0.119506   0.006492
    12  H    0.123951   0.037678
    13  C    0.099989  -0.138260
    14  C   -0.158331   0.226756
    15  C   -0.156768   0.223408
    16  C   -0.107935  -0.119968
    17  H    0.086604  -0.008129
    18  C   -0.107264  -0.118719
    19  H    0.087803  -0.009865
    20  C   -0.120599   0.263559
    21  H    0.090143   0.004423
    22  H    0.090442   0.004228
    23  H    0.087075  -0.012397
 Sum of Mulliken charges =  -0.00000   2.00000

 Dipole moment (field-independent basis, Debye):
    X=              4.6022    Y=             -3.2288    Z=              1.8014  Tot=              5.9034
 Quadrupole moment (field-independent basis, Debye-Ang):
   XX=            -42.6803   YY=            -55.9086   ZZ=            -68.8358
   XY=            -12.5302   XZ=              1.7906   YZ=              0.6356

 Normal termination of Gaussian 16 at Mon Jun 10 12:09:54 2019.
