 Gaussian 16, Revision A.03,
 Gaussian 16:  ES64L-G16RevA.03 25-Dec-2016

 ----------------------------------------------------------------------
 #p opt td=(nstates=6,root=01) ub3lyp/6-31g(d,p) scrf=(iefpcm,solvent=a
 cetonitrile) guess=(core,mix,always) empiricaldispersion=gd3
 ----------------------------------------------------------------------

 ----------------------------------------------------------
 Start with the ground state acetophenone-hydrazine complex
 ----------------------------------------------------------
 Symbolic Z-matrix:
 Charge =  0 Multiplicity = 1

 SCF Done:  E(UB3LYP) =  -496.812913388     A.U. after   24 cycles
 Total Energy, E(TD-HF/TD-DFT) =  -496.690996283
 SCF Done:  E(UB3LYP) =  -496.804644573     A.U. after   23 cycles
 Total Energy, E(TD-HF/TD-DFT) =  -496.703518280
 SCF Done:  E(UB3LYP) =  -496.795726562     A.U. after   22 cycles
 Total Energy, E(TD-HF/TD-DFT) =  -496.705617440
 SCF Done:  E(UB3LYP) =  -496.796119507     A.U. after   20 cycles
 Total Energy, E(TD-HF/TD-DFT) =  -496.705717867
 SCF Done:  E(UB3LYP) =  -496.796192497     A.U. after   20 cycles
 Total Energy, E(TD-HF/TD-DFT) =  -496.705748782
 SCF Done:  E(UB3LYP) =  -496.796218166     A.U. after   20 cycles
 Total Energy, E(TD-HF/TD-DFT) =  -496.705759318
 SCF Done:  E(UB3LYP) =  -496.796268959     A.U. after   20 cycles
 Total Energy, E(TD-HF/TD-DFT) =  -496.705763673
 SCF Done:  E(UB3LYP) =  -496.796253824     A.U. after   20 cycles
 Total Energy, E(TD-HF/TD-DFT) =  -496.705765248
 SCF Done:  E(UB3LYP) =  -496.796218711     A.U. after   20 cycles
 Total Energy, E(TD-HF/TD-DFT) =  -496.705766990
 SCF Done:  E(UB3LYP) =  -496.796179618     A.U. after   20 cycles
 Total Energy, E(TD-HF/TD-DFT) =  -496.705769121
 SCF Done:  E(UB3LYP) =  -496.796167645     A.U. after   20 cycles
 Total Energy, E(TD-HF/TD-DFT) =  -496.705770597
 SCF Done:  E(UB3LYP) =  -496.796202619     A.U. after   20 cycles
 Total Energy, E(TD-HF/TD-DFT) =  -496.705771556
 SCF Done:  E(UB3LYP) =  -496.796215713     A.U. after   20 cycles
 Total Energy, E(TD-HF/TD-DFT) =  -496.705771727
 SCF Done:  E(UB3LYP) =  -496.796216019     A.U. after   20 cycles
 Total Energy, E(TD-HF/TD-DFT) =  -496.705771862
 SCF Done:  E(UB3LYP) =  -496.796214229     A.U. after   20 cycles
 Total Energy, E(TD-HF/TD-DFT) =  -496.705771899
 SCF Done:  E(UB3LYP) =  -496.796212404     A.U. after   20 cycles
 Total Energy, E(TD-HF/TD-DFT) =  -496.705771913
 SCF Done:  E(UB3LYP) =  -496.796210867     A.U. after   20 cycles

 Excitation energies and oscillator strengths:

 Excited State   1:  3.000-A      2.4610 eV  503.80 nm  f=0.0000  <S**2>=2.000
     37A -> 43A       -0.12674
     39A -> 42A        0.54899
     40A -> 42A       -0.39847
     41A -> 42A       -0.13130
     37B -> 43B        0.12674
     39B -> 42B       -0.54899
     40B -> 42B        0.39847
     41B -> 42B        0.13130
 This state for optimization and/or second-order correction.
 Total Energy, E(TD-HF/TD-DFT) =  -496.705771928
 Copying the excited state density for this state as the 1-particle RhoCI density.

 Excited State   2:  3.000-A      2.9078 eV  426.38 nm  f=0.0000  <S**2>=2.000
     38A -> 42A        0.60345
     38A -> 44A       -0.13298
     39A -> 42A       -0.18971
     40A -> 42A       -0.22493
     41A -> 42A        0.16347
     38B -> 42B       -0.60344
     38B -> 44B        0.13298
     39B -> 42B        0.18971
     40B -> 42B        0.22493
     41B -> 42B       -0.16347

 Excited State   3:  1.000-A      3.3486 eV  370.26 nm  f=0.0003  <S**2>=0.000
     38A -> 42A        0.56022
     39A -> 42A       -0.16645
     40A -> 42A       -0.29473
     41A -> 42A        0.24625
     38B -> 42B        0.56022
     39B -> 42B       -0.16645
     40B -> 42B       -0.29473
     41B -> 42B        0.24625

 Excited State   4:  3.000-A      3.6219 eV  342.31 nm  f=0.0000  <S**2>=2.000
     37A -> 42A        0.68602
     41A -> 42A        0.10288
     37B -> 42B       -0.68602
     41B -> 42B       -0.10288

 Excited State   5:  3.000-A      3.6509 eV  339.60 nm  f=0.0000  <S**2>=2.000
     37A -> 42A       -0.11807
     38A -> 42A       -0.11464
     39A -> 42A        0.17244
     41A -> 42A        0.66279
     37B -> 42B        0.11807
     38B -> 42B        0.11462
     39B -> 42B       -0.17243
     41B -> 42B       -0.66273

 Excited State   6:  1.000-A      3.6606 eV  338.70 nm  f=0.0146  <S**2>=0.000
     38A -> 42A       -0.18342
     39A -> 42A        0.11441
     40A -> 42A        0.13016
     41A -> 42A        0.65915
     38B -> 42B       -0.18343
     39B -> 42B        0.11442
     40B -> 42B        0.13016
     41B -> 42B        0.65921

 Optimization completed.
    -- Stationary point found.

                         Standard orientation:
 ---------------------------------------------------------------------
 Center     Atomic      Atomic             Coordinates (Angstroms)
 Number     Number       Type             X           Y           Z
 ---------------------------------------------------------------------
      1          6           0        0.549310    0.255879   -0.388991
      2          1           0        4.858878   -1.003604   -0.388445
      3          8           0        1.262327   -0.792379   -0.579012
      4          7           0        3.756401   -0.350990    1.132080
      5          1           0        3.451607    0.581549    1.404332
      6          7           0        4.199458   -0.241395   -0.244325
      7          1           0        3.400519   -0.439168   -0.850467
      8          1           0        2.911230   -0.924740    1.165464
      9          6           0        1.191227    1.628203   -0.388323
     10          1           0        0.723634    2.290759   -1.125203
     11          1           0        1.093131    2.114151    0.589724
     12          1           0        2.251428    1.534949   -0.625572
     13          6           0       -0.845270    0.099391   -0.161285
     14          6           0       -1.441730   -1.262613   -0.178866
     15          6           0       -1.746051    1.228757    0.103107
     16          6           0       -2.778605   -1.439416    0.027539
     17          1           0       -0.773814   -2.093411   -0.365077
     18          6           0       -3.075200    1.017816    0.304325
     19          1           0       -1.339533    2.232604    0.134626
     20          6           0       -3.641395   -0.321537    0.272283
     21          1           0       -3.202590   -2.438928    0.007998
     22          1           0       -3.735131    1.858452    0.495672
     23          1           0       -4.702715   -0.465762    0.436021
 ---------------------------------------------------------------------

 The electronic state is 1-A.
 Alpha  occ. eigenvalues --  -19.14049 -14.32831 -14.32526 -10.28357 -10.21921
 Alpha  occ. eigenvalues --  -10.21505 -10.21328 -10.21096 -10.20613 -10.20464
 Alpha  occ. eigenvalues --  -10.19035  -1.01483  -0.92909  -0.85550  -0.77718
 Alpha  occ. eigenvalues --   -0.76065  -0.73354  -0.72771  -0.64720  -0.60287
 Alpha  occ. eigenvalues --   -0.55595  -0.51521  -0.48425  -0.47168  -0.46860
 Alpha  occ. eigenvalues --   -0.46089  -0.44184  -0.44081  -0.43461  -0.43034
 Alpha  occ. eigenvalues --   -0.41052  -0.38987  -0.37671  -0.37192  -0.34649
 Alpha  occ. eigenvalues --   -0.33938  -0.27234  -0.26111  -0.25426  -0.24507
 Alpha  occ. eigenvalues --   -0.23849
 Alpha virt. eigenvalues --   -0.08247  -0.00746   0.02793   0.08365   0.10201
 Alpha virt. eigenvalues --    0.11442   0.13017   0.14291   0.14449   0.14946
 Alpha virt. eigenvalues --    0.16473   0.17617   0.17950   0.18830   0.19233

  Beta  occ. eigenvalues --  -19.14049 -14.32831 -14.32526 -10.28357 -10.21921
  Beta  occ. eigenvalues --  -10.21505 -10.21328 -10.21096 -10.20613 -10.20464
  Beta  occ. eigenvalues --  -10.19035  -1.01483  -0.92909  -0.85550  -0.77718
  Beta  occ. eigenvalues --   -0.76065  -0.73354  -0.72771  -0.64720  -0.60287
  Beta  occ. eigenvalues --   -0.55595  -0.51521  -0.48425  -0.47168  -0.46860
  Beta  occ. eigenvalues --   -0.46089  -0.44184  -0.44081  -0.43461  -0.43034
  Beta  occ. eigenvalues --   -0.41052  -0.38987  -0.37671  -0.37192  -0.34649
  Beta  occ. eigenvalues --   -0.33938  -0.27234  -0.26111  -0.25426  -0.24507
  Beta  occ. eigenvalues --   -0.23849
  Beta virt. eigenvalues --   -0.08247  -0.00746   0.02793   0.08365   0.10201
  Beta virt. eigenvalues --    0.11442   0.13017   0.14291   0.14449   0.14946
  Beta virt. eigenvalues --    0.16473   0.17617   0.17950   0.18830   0.19233

 Mulliken charges and spin densities:
               1          2
     1  C    0.386617   0.000000
     2  H    0.257769  -0.000000
     3  O   -0.539471  -0.000000
     4  N   -0.532201  -0.000000
     5  H    0.259744   0.000000
     6  N   -0.536996   0.000000
     7  H    0.257705   0.000000
     8  H    0.253126   0.000000
     9  C   -0.409855   0.000000
    10  H    0.149133  -0.000000
    11  H    0.153208  -0.000000
    12  H    0.141665  -0.000000
    13  C    0.027291  -0.000001
    14  C   -0.086233   0.000001
    15  C   -0.100218   0.000001
    16  C   -0.095026  -0.000001
    17  H    0.122392  -0.000000
    18  C   -0.106131  -0.000001
    19  H    0.121834  -0.000000
    20  C   -0.086786   0.000001
    21  H    0.118476   0.000000
    22  H    0.118325   0.000000
    23  H    0.125634  -0.000000
 Sum of Mulliken charges =  -0.00000  -0.00000

 Dipole moment (field-independent basis, Debye):
    X=             -6.6504    Y=              1.8092    Z=             -0.0256  Tot=              6.8921
 Quadrupole moment (field-independent basis, Debye-Ang):
   XX=            -74.9749   YY=            -57.2473   ZZ=            -68.6932
   XY=             -0.0398   XZ=             -5.3876   YZ=              1.6637

 Normal termination of Gaussian 16 at Mon Jul 15 22:04:09 2019.
