 Gaussian 16, Revision A.03,
 Gaussian 16:  ES64L-G16RevA.03 25-Dec-2016

 ----------------------------------------------------------------------
 #p freq rb3lyp/6-31g(d,p) scrf=(iefpcm,solvent=acetonitrile) empirical
 dispersion=gd3
 ----------------------------------------------------------------------

 -------------------
 Title Card Required
 -------------------
 Symbolic Z-matrix:
 Charge =  0 Multiplicity = 1

                         Standard orientation:
 ---------------------------------------------------------------------
 Center     Atomic      Atomic             Coordinates (Angstroms)
 Number     Number       Type             X           Y           Z
 ---------------------------------------------------------------------
      1          6           0        0.354292   -1.479367   -0.300682
      2          1           0        4.618022   -1.283283    1.298049
      3          6           0        1.789590    1.486036    0.313703
      4          8           0        2.516551    1.447090   -0.678564
      5          8           0        1.087393   -1.591673    0.682724
      6          7           0        4.641778   -0.832169   -0.640352
      7          1           0        4.542537   -1.382863   -1.490021
      8          7           0        4.216729   -1.684188    0.453524
      9          1           0        3.201097   -1.640852    0.567673
     10          1           0        4.015195   -0.029334   -0.735132
     11          6           0        0.944413   -1.344207   -1.686276
     12          1           0        0.596890   -2.155483   -2.333883
     13          1           0        0.629864   -0.399910   -2.139806
     14          1           0        2.031853   -1.359962   -1.621332
     15          6           0        2.344620    1.203121    1.691376
     16          1           0        2.133242    2.030138    2.376266
     17          1           0        1.877621    0.300528    2.095869
     18          1           0        3.421182    1.048234    1.619719
     19          6           0       -1.127817   -1.466906   -0.133755
     20          6           0       -1.661066   -1.665472    1.151099
     21          6           0       -2.000025   -1.243915   -1.210097
     22          6           0       -3.036203   -1.645070    1.355511
     23          1           0       -0.976966   -1.829640    1.976279
     24          6           0       -3.378972   -1.217805   -1.003288
     25          1           0       -1.611000   -1.079441   -2.208397
     26          6           0       -3.898430   -1.419016    0.276932
     27          1           0       -3.439469   -1.800289    2.351458
     28          1           0       -4.046348   -1.037619   -1.840128
     29          1           0       -4.972479   -1.398392    0.435704
     30          6           0        0.335793    1.789979    0.163553
     31          6           0       -0.151912    2.126260   -1.111322
     32          6           0       -0.562152    1.703684    1.238513
     33          6           0       -1.508064    2.360762   -1.308906
     34          1           0        0.551512    2.192584   -1.934174
     35          6           0       -1.922581    1.933380    1.038083
     36          1           0       -0.210412    1.435119    2.228133
     37          6           0       -2.397359    2.258132   -0.233613
     38          1           0       -1.876758    2.614901   -2.297804
     39          1           0       -2.612881    1.843333    1.870299
     40          1           0       -3.458570    2.425814   -0.389234
 ---------------------------------------------------------------------

 SCF Done:  E(RB3LYP) =  -881.758711641     A.U. after   13 cycles

 The electronic state is 1-A.
 Alpha  occ. eigenvalues --  -19.14931 -19.14675 -14.32312 -14.32135 -10.28641
 Alpha  occ. eigenvalues --  -10.28477 -10.20321 -10.20314 -10.20269 -10.20262
 Alpha  occ. eigenvalues --  -10.20183 -10.20160 -10.19918 -10.19870 -10.19752
 Alpha  occ. eigenvalues --  -10.19745 -10.19736 -10.19673 -10.18646 -10.18507
 Alpha  occ. eigenvalues --   -1.04568  -1.04280  -0.92380  -0.86436  -0.86128
 Alpha  occ. eigenvalues --   -0.77599  -0.77536  -0.75454  -0.75254  -0.73260
 Alpha  occ. eigenvalues --   -0.73044  -0.72922  -0.63260  -0.63134  -0.60962
 Alpha  occ. eigenvalues --   -0.60891  -0.55543  -0.55404  -0.51582  -0.51214
 Alpha  occ. eigenvalues --   -0.48117  -0.47462  -0.46695  -0.46646  -0.46305
 Alpha  occ. eigenvalues --   -0.46145  -0.45617  -0.44644  -0.44576  -0.43464
 Alpha  occ. eigenvalues --   -0.42763  -0.42689  -0.42655  -0.41992  -0.41847
 Alpha  occ. eigenvalues --   -0.39080  -0.39029  -0.38434  -0.37745  -0.36004
 Alpha  occ. eigenvalues --   -0.35981  -0.35685  -0.35165  -0.34730  -0.34686
 Alpha  occ. eigenvalues --   -0.26955  -0.26557  -0.26318  -0.26054  -0.25694
 Alpha  occ. eigenvalues --   -0.25095  -0.24253  -0.23079
 Alpha virt. eigenvalues --   -0.06591  -0.05797  -0.01268  -0.00593   0.03583
 Alpha virt. eigenvalues --    0.03695   0.07665   0.09752   0.09947   0.11055
 Alpha virt. eigenvalues --    0.12183   0.12800   0.14770   0.15190   0.15317

 Mulliken charges:
               1
     1  C    0.403364
     2  H    0.255037
     3  C    0.409154
     4  O   -0.505828
     5  O   -0.503043
     6  N   -0.557097
     7  H    0.257364
     8  N   -0.563584
     9  H    0.271367
    10  H    0.270400
    11  C   -0.399914
    12  H    0.146393
    13  H    0.150573
    14  H    0.124114
    15  C   -0.406271
    16  H    0.142391
    17  H    0.160191
    18  H    0.129765
    19  C    0.062816
    20  C   -0.102740
    21  C   -0.116068
    22  C   -0.099084
    23  H    0.111338
    24  C   -0.102254
    25  H    0.111797
    26  C   -0.084962
    27  H    0.109344
    28  H    0.110077
    29  H    0.111849
    30  C    0.040860
    31  C   -0.112835
    32  C   -0.116935
    33  C   -0.097579
    34  H    0.114617
    35  C   -0.091397
    36  H    0.112568
    37  C   -0.077106
    38  H    0.109988
    39  H    0.109826
    40  H    0.111505
 Sum of Mulliken charges =  -0.00000

 Dipole moment (field-independent basis, Debye):
    X=             -9.7712    Y=              2.1429    Z=              0.1512  Tot=             10.0046
 Quadrupole moment (field-independent basis, Debye-Ang):
   XX=           -136.0271   YY=           -125.0118   ZZ=           -102.1660
   XY=              7.1016   XZ=              4.2619   YZ=              5.1626

  Exact polarizability: 324.140 -18.787 126.979  -2.452 -21.660 257.408
 Approx polarizability: 389.546 -23.057 150.383  -3.532 -31.769 334.140

                      1                      2                      3
                      A                      A                      A
 Frequencies --     14.9609                32.0735                42.1778
 Red. masses --      4.7145                 5.1153                 4.7504
 Frc consts  --      0.0006                 0.0031                 0.0050
 IR Inten    --      1.1127                 0.6875                 0.1327

                      4                      5                      6
                      A                      A                      A
 Frequencies --     49.9370                54.6855                67.5453
 Red. masses --      5.3843                 5.0544                 4.6687
 Frc consts  --      0.0079                 0.0089                 0.0125
 IR Inten    --      0.3801                 2.0114                 0.2201

                      7                      8                      9
                      A                      A                      A
 Frequencies --     69.7536                78.7367                90.4943
 Red. masses --      4.5988                 3.9778                 4.7663
 Frc consts  --      0.0132                 0.0145                 0.0230
 IR Inten    --      0.7200                 0.5880                 1.0497

                     10                     11                     12
                      A                      A                      A
 Frequencies --    109.2340               124.2587               126.1828
 Red. masses --      3.8167                 4.2006                 4.5983
 Frc consts  --      0.0268                 0.0382                 0.0431
 IR Inten    --      1.4696                 4.5949                16.5936

                     13                     14                     15
                      A                      A                      A
 Frequencies --    160.7843               165.0129               168.3114
 Red. masses --      3.4908                 2.7164                 3.2466
 Frc consts  --      0.0532                 0.0436                 0.0542
 IR Inten    --      3.8954                 5.1760                 4.2276

                     16                     17                     18
                      A                      A                      A
 Frequencies --    189.1347               207.2095               238.5000
 Red. masses --      1.1688                 1.1765                 3.0989
 Frc consts  --      0.0246                 0.0298                 0.1039
 IR Inten    --      1.6712                 5.1395                 9.1896

                     19                     20                     21
                      A                      A                      A
 Frequencies --    245.7297               273.0202               380.1985
 Red. masses --      3.8290                 1.1806                 4.5929
 Frc consts  --      0.1362                 0.0519                 0.3912
 IR Inten    --     24.7324                62.1323                 1.6242

                     22                     23                     24
                      A                      A                      A
 Frequencies --    383.3731               410.4180               413.2816
 Red. masses --      4.5530                 2.9299                 2.9228
 Frc consts  --      0.3943                 0.2908                 0.2941
 IR Inten    --      0.8418                 0.0128                 0.0794

                     25                     26                     27
                      A                      A                      A
 Frequencies --    427.4258               432.3570               476.2535
 Red. masses --      3.3749                 3.3960                 1.7797
 Frc consts  --      0.3633                 0.3740                 0.2378
 IR Inten    --      0.8238                 1.7610                61.0084

                     28                     29                     30
                      A                      A                      A
 Frequencies --    479.2200               480.8515               600.8781
 Red. masses --      3.0530                 1.9729                 4.4090
 Frc consts  --      0.4131                 0.2688                 0.9379
 IR Inten    --     31.3057                23.8182                36.9792

                     31                     32                     33
                      A                      A                      A
 Frequencies --    603.6305               604.5702               606.7594
 Red. masses --      2.4926                 4.6019                 2.4289
 Frc consts  --      0.5351                 0.9910                 0.5269
 IR Inten    --     25.2452                42.0759                 0.2077

                     34                     35                     36
                      A                      A                      A
 Frequencies --    629.4998               629.7125               700.4074
 Red. masses --      6.4195                 6.4264                 1.8721
 Frc consts  --      1.4988                 1.5014                 0.5411
 IR Inten    --      2.1503                 1.2321                73.2758

                     37                     38                     39
                      A                      A                      A
 Frequencies --    701.7071               747.4459               749.3722
 Red. masses --      1.8981                 4.9812                 5.0532
 Frc consts  --      0.5507                 1.6396                 1.6719
 IR Inten    --      9.4006                 1.3463                 0.5890

                     40                     41                     42
                      A                      A                      A
 Frequencies --    774.8808               778.0022               862.0821
 Red. masses --      1.7039                 1.6827                 1.2524
 Frc consts  --      0.6028                 0.6001                 0.5484
 IR Inten    --     49.6477                28.6959                 0.1270

                     43                     44                     45
                      A                      A                      A
 Frequencies --    864.6009               897.8906               949.4608
 Red. masses --      1.2547                 2.8990                 1.3484
 Frc consts  --      0.5526                 1.3770                 0.7162
 IR Inten    --      1.1110               130.9069                 7.9093

                     46                     47                     48
                      A                      A                      A
 Frequencies --    950.5849               971.6030               972.3749
 Red. masses --      1.3479                 2.1910                 2.1923
 Frc consts  --      0.7176                 1.2187                 1.2213
 IR Inten    --      3.5570                50.8673                31.7259

                     49                     50                     51
                      A                      A                      A
 Frequencies --    988.9035               991.6494              1011.2722
 Red. masses --      1.3603                 1.3618                 1.2968
 Frc consts  --      0.7838                 0.7890                 0.7813
 IR Inten    --      0.2955                 1.1565                 1.1169

                     52                     53                     54
                      A                      A                      A
 Frequencies --   1013.3204              1015.3006              1015.9393
 Red. masses --      1.2998                 6.0018                 5.7133
 Frc consts  --      0.7864                 3.6452                 3.4743
 IR Inten    --      0.2799                 0.6294                 2.7016

                     55                     56                     57
                      A                      A                      A
 Frequencies --   1048.8370              1050.7240              1051.2555
 Red. masses --      1.8685                 1.9634                 2.4672
 Frc consts  --      1.2111                 1.2772                 1.6065
 IR Inten    --     21.4225                17.5320                 1.3677

                     58                     59                     60
                      A                      A                      A
 Frequencies --   1051.8732              1074.4107              1103.5852
 Red. masses --      2.3934                 1.1404                 2.1256
 Frc consts  --      1.5602                 0.7756                 1.5252
 IR Inten    --      2.6499               175.9922                 1.5452

                     61                     62                     63
                      A                      A                      A
 Frequencies --   1105.5829              1121.1878              1121.5619
 Red. masses --      2.1200                 1.5502                 1.5557
 Frc consts  --      1.5268                 1.1482                 1.1530
 IR Inten    --      2.4605                 5.6468                15.1691

                     64                     65                     66
                      A                      A                      A
 Frequencies --   1153.4840              1194.4814              1194.5422
 Red. masses --      1.4775                 1.1037                 1.1033
 Frc consts  --      1.1583                 0.9278                 0.9276
 IR Inten    --    117.0250                 1.4560                 1.5607

                     67                     68                     69
                      A                      A                      A
 Frequencies --   1214.7922              1215.7087              1293.1409
 Red. masses --      1.1477                 1.1469                 3.3124
 Frc consts  --      0.9979                 0.9987                 3.2635
 IR Inten    --      3.7704                39.7593               194.3165

                     70                     71                     72
                      A                      A                      A
 Frequencies --   1295.8172              1327.5110              1347.6303
 Red. masses --      3.4032                 1.1790                 1.7710
 Frc consts  --      3.3668                 1.2242                 1.8950
 IR Inten    --    314.4331                23.6702                 4.2000

                     73                     74                     75
                      A                      A                      A
 Frequencies --   1348.5507              1367.9679              1368.8916
 Red. masses --      1.8126                 2.9319                 3.1221
 Frc consts  --      1.9422                 3.2326                 3.4469
 IR Inten    --     11.3241                 9.6527                 5.0655

                     76                     77                     78
                      A                      A                      A
 Frequencies --   1382.1082              1394.8583              1400.6952
 Red. masses --      1.1824                 1.3462                 1.3137
 Frc consts  --      1.3308                 1.5432                 1.5186
 IR Inten    --      5.3528               107.5533                91.8005

                     79                     80                     81
                      A                      A                      A
 Frequencies --   1479.0805              1480.0473              1481.7115
 Red. masses --      1.0565                 1.0664                 1.0704
 Frc consts  --      1.3617                 1.3763                 1.3846
 IR Inten    --     15.8285                 9.0769                20.2699

                     82                     83                     84
                      A                      A                      A
 Frequencies --   1482.1420              1488.2918              1488.6719
 Red. masses --      1.0567                 2.2255                 2.2503
 Frc consts  --      1.3677                 2.9044                 2.9383
 IR Inten    --     11.9389                28.5213                40.2273

                     85                     86                     87
                      A                      A                      A
 Frequencies --   1534.8961              1535.5540              1631.5784
 Red. masses --      2.1537                 2.1593                 5.3371
 Frc consts  --      2.9895                 2.9998                 8.3709
 IR Inten    --      0.8342                 4.8092                43.3685

                     88                     89                     90
                      A                      A                      A
 Frequencies --   1632.2602              1652.1517              1652.9773
 Red. masses --      5.3412                 5.4036                 5.4201
 Frc consts  --      8.3843                 8.6902                 8.7255
 IR Inten    --      7.5385                 7.2675               123.8726

                     91                     92                     93
                      A                      A                      A
 Frequencies --   1696.7720              1705.8573              1730.5039
 Red. masses --      1.1006                 1.1282                 6.5016
 Frc consts  --      1.8670                 1.9343                11.4713
 IR Inten    --     27.4183                43.1785               373.2697

                     94                     95                     96
                      A                      A                      A
 Frequencies --   1735.3083              3058.1051              3059.3680
 Red. masses --      7.9624                 1.0366                 1.0381
 Frc consts  --     14.1269                 5.7117                 5.7248
 IR Inten    --    311.9776                 3.4672                 3.3319

                     97                     98                     99
                      A                      A                      A
 Frequencies --   3128.5916              3131.2769              3168.7853
 Red. masses --      1.0991                 1.1000                 1.1039
 Frc consts  --      6.3384                 6.3544                 6.5306
 IR Inten    --      5.6305                 3.6498                21.9853

                    100                    101                    102
                      A                      A                      A
 Frequencies --   3177.6841              3185.7622              3188.3176
 Red. masses --      1.1023                 1.0862                 1.0863
 Frc consts  --      6.5581                 6.4951                 6.5061
 IR Inten    --      7.4159                 0.4290                 1.3780

                    103                    104                    105
                      A                      A                      A
 Frequencies --   3196.1081              3198.7165              3206.1001
 Red. masses --      1.0897                 1.0893                 1.0939
 Frc consts  --      6.5584                 6.5668                 6.6249
 IR Inten    --     15.7018                12.8765                29.8313

                    106                    107                    108
                      A                      A                      A
 Frequencies --   3208.1253              3216.8592              3218.3050
 Red. masses --      1.0928                 1.0935                 1.0928
 Frc consts  --      6.6265                 6.6671                 6.6690
 IR Inten    --     26.1973                17.2840                23.4471

                    109                    110                    111
                      A                      A                      A
 Frequencies --   3220.7855              3221.3581              3418.7071
 Red. masses --      1.0955                 1.0961                 1.0550
 Frc consts  --      6.6953                 6.7014                 7.2650
 IR Inten    --      4.6006                12.3564                38.0239

                    112                    113                    114
                      A                      A                      A
 Frequencies --   3424.6059              3535.1769              3545.7462
 Red. masses --      1.0537                 1.0908                 1.0880
 Frc consts  --      7.2813                 8.0316                 8.0590
 IR Inten    --    197.2123                46.7612                 4.4768

 - Thermochemistry -
 -------------------
 Temperature   298.150 Kelvin.  Pressure   1.00000 Atm.
 Atom     1 has atomic number  6 and mass  12.00000

 Molecular mass:   272.15248 amu.
 Principal axes and moments of inertia in atomic units:
                           1         2         3
     Eigenvalues --  3631.038186892.390828404.99507
           X            0.99994  -0.01062   0.00335
           Y            0.01058   0.99985   0.01399
           Z           -0.00350  -0.01395   0.99990
 This molecule is an asymmetric top.
 Rotational symmetry number  1.
 Warning -- assumption of classical behavior for rotation
           may cause significant error
 Rotational temperatures (Kelvin)      0.02385     0.01257     0.01031
 Rotational constants (GHZ):           0.49703     0.26185     0.21472
 Zero-point vibrational energy     875477.8 (Joules/Mol)
                                  209.24421 (Kcal/Mol)
 Warning -- explicit consideration of  33 degrees of freedom as
           vibrations may cause significant error
 Vibrational temperatures:     21.53    46.15    60.68    71.85    78.68
          (Kelvin)             97.18   100.36   113.28   130.20   157.16
                              178.78   181.55   231.33   237.42   242.16
                              272.12   298.13   343.15   353.55   392.82
                              547.02   551.59   590.50   594.62   614.97
                              622.07   685.22   689.49   691.84   864.53
                              868.49   869.84   872.99   905.71   906.02
                             1007.73  1009.60  1075.41  1078.18  1114.88
                             1119.37  1240.34  1243.97  1291.86  1366.06
                             1367.68  1397.92  1399.03  1422.81  1426.76
                             1455.00  1457.94  1460.79  1461.71  1509.04
                             1511.76  1512.52  1513.41  1545.84  1587.81
                             1590.69  1613.14  1613.68  1659.61  1718.59
                             1718.68  1747.81  1749.13  1860.54  1864.39
                             1909.99  1938.94  1940.26  1968.20  1969.53
                             1988.55  2006.89  2015.29  2128.07  2129.46
                             2131.85  2132.47  2141.32  2141.87  2208.37
                             2209.32  2347.48  2348.46  2377.08  2378.27
                             2441.28  2454.35  2489.81  2496.72  4399.93
                             4401.75  4501.35  4505.21  4559.18  4571.98
                             4583.60  4587.28  4598.49  4602.24  4612.86
                             4615.78  4628.34  4630.42  4633.99  4634.82
                             4918.76  4927.24  5086.33  5101.54

 Zero-point correction=                           0.333452 (Hartree/Particle)
 Thermal correction to Energy=                    0.355310
 Thermal correction to Enthalpy=                  0.356255
 Thermal correction to Gibbs Free Energy=         0.279904
 Sum of electronic and zero-point Energies=           -881.425260
 Sum of electronic and thermal Energies=              -881.403401
 Sum of electronic and thermal Enthalpies=            -881.402457
 Sum of electronic and thermal Free Energies=         -881.478808

                     E (Thermal)             CV                S
                      KCal/Mol        Cal/Mol-Kelvin    Cal/Mol-Kelvin
 Total                  222.961             78.715            160.694
 Electronic               0.000              0.000              0.000
 Translational            0.889              2.981             42.702
 Rotational               0.889              2.981             33.708
 Vibrational            221.183             72.753             84.283
 Vibration     1          0.593              1.986              7.211
 Vibration     2          0.594              1.983              5.697
 Vibration     3          0.595              1.980              5.154
 Vibration     4          0.595              1.978              4.820
 Vibration     5          0.596              1.976              4.640
 Vibration     6          0.598              1.970              4.224
 Vibration     7          0.598              1.969              4.160
 Vibration     8          0.600              1.963              3.922
 Vibration     9          0.602              1.956              3.649
 Vibration    10          0.606              1.942              3.282
 Vibration    11          0.610              1.929              3.033
 Vibration    12          0.611              1.927              3.003
 Vibration    13          0.622              1.890              2.541
 Vibration    14          0.623              1.885              2.492
 Vibration    15          0.625              1.881              2.454
 Vibration    16          0.633              1.855              2.236
 Vibration    17          0.641              1.830              2.068
 Vibration    18          0.656              1.782              1.814
 Vibration    19          0.660              1.770              1.761
 Vibration    20          0.676              1.723              1.577
 Vibration    21          0.750              1.512              1.038
 Vibration    22          0.753              1.506              1.026
 Vibration    23          0.775              1.448              0.925
 Vibration    24          0.777              1.441              0.915
 Vibration    25          0.789              1.411              0.867
 Vibration    26          0.793              1.400              0.851
 Vibration    27          0.833              1.303              0.720
 Vibration    28          0.836              1.296              0.712
 Vibration    29          0.837              1.293              0.708
 Vibration    30          0.959              1.030              0.448
 Vibration    31          0.962              1.024              0.443
 Vibration    32          0.963              1.022              0.442
 Vibration    33          0.965              1.017              0.438

 1\1\GINC-BLG4112\Freq\RB3LYP\6-31G(d,p)\C16H20N2O2\RZK\14-Jun-2019\0\\
 #p freq rb3lyp/6-31g(d,p) scrf=(iefpcm,solvent=acetonitrile) empirical
 dispersion=gd3\\Title Card Required\\0,1\C,0.354292,-1.479367,-0.30068
 2\H,4.618022,-1.283283,1.298049\C,1.78959,1.486036,0.313703\O,2.516551
 ,1.44709,-0.678564\O,1.087393,-1.591673,0.682724\N,4.641778,-0.832169,
 -0.640352\H,4.542537,-1.382863,-1.490021\N,4.216729,-1.684188,0.453524
 \H,3.201097,-1.640852,0.567673\H,4.015195,-0.029334,-0.735132\C,0.9444
 13,-1.344207,-1.686276\H,0.59689,-2.155483,-2.333883\H,0.629864,-0.399

 Normal termination of Gaussian 16 at Fri Jun 14 09:34:20 2019.
