 Gaussian 16, Revision B.01,
 Gaussian 16:  ES64L-G16RevB.01 20-Dec-2017

 ----------------------------------------------------------------------
 #p opt rb3lyp/6-31g(d,p) scrf=(iefpcm,solvent=acetonitrile) empiricald
 ispersion=gd3
 ----------------------------------------------------------------------

 -------------------
 Title Card Required
 -------------------
 Symbolic Z-matrix:
 Charge =  0 Multiplicity = 1

 SCF Done:  E(RB3LYP) =  -881.755426315     A.U. after   13 cycles
 SCF Done:  E(RB3LYP) =  -881.744598138     A.U. after   14 cycles
 SCF Done:  E(RB3LYP) =  -881.753052245     A.U. after   12 cycles
 SCF Done:  E(RB3LYP) =  -881.755430894     A.U. after    7 cycles
 SCF Done:  E(RB3LYP) =  -881.755443702     A.U. after   10 cycles
 SCF Done:  E(RB3LYP) =  -881.755572244     A.U. after   10 cycles
 SCF Done:  E(RB3LYP) =  -881.755795849     A.U. after   10 cycles
 SCF Done:  E(RB3LYP) =  -881.755987360     A.U. after   11 cycles
 SCF Done:  E(RB3LYP) =  -881.754923090     A.U. after   13 cycles
 SCF Done:  E(RB3LYP) =  -881.756103430     A.U. after   10 cycles
 SCF Done:  E(RB3LYP) =  -881.758706366     A.U. after    7 cycles
 SCF Done:  E(RB3LYP) =  -881.758707515     A.U. after    7 cycles
 SCF Done:  E(RB3LYP) =  -881.758708329     A.U. after    7 cycles
 SCF Done:  E(RB3LYP) =  -881.758708984     A.U. after    7 cycles
 SCF Done:  E(RB3LYP) =  -881.758709710     A.U. after    7 cycles
 SCF Done:  E(RB3LYP) =  -881.758710486     A.U. after    7 cycles
 SCF Done:  E(RB3LYP) =  -881.758711023     A.U. after    7 cycles
 SCF Done:  E(RB3LYP) =  -881.758711326     A.U. after    7 cycles
 SCF Done:  E(RB3LYP) =  -881.758711493     A.U. after    7 cycles
 SCF Done:  E(RB3LYP) =  -881.758711641     A.U. after    7 cycles
 Optimization completed.
    -- Stationary point found.

                         Standard orientation:
 ---------------------------------------------------------------------
 Center     Atomic      Atomic             Coordinates (Angstroms)
 Number     Number       Type             X           Y           Z
 ---------------------------------------------------------------------
      1          6           0        0.354292   -1.479367   -0.300682
      2          1           0        4.618022   -1.283283    1.298049
      3          6           0        1.789590    1.486036    0.313703
      4          8           0        2.516551    1.447090   -0.678564
      5          8           0        1.087393   -1.591673    0.682724
      6          7           0        4.641778   -0.832169   -0.640352
      7          1           0        4.542537   -1.382863   -1.490021
      8          7           0        4.216729   -1.684188    0.453524
      9          1           0        3.201097   -1.640852    0.567673
     10          1           0        4.015195   -0.029334   -0.735132
     11          6           0        0.944413   -1.344207   -1.686276
     12          1           0        0.596890   -2.155483   -2.333883
     13          1           0        0.629864   -0.399910   -2.139806
     14          1           0        2.031853   -1.359962   -1.621332
     15          6           0        2.344620    1.203121    1.691376
     16          1           0        2.133242    2.030138    2.376266
     17          1           0        1.877621    0.300528    2.095869
     18          1           0        3.421182    1.048234    1.619719
     19          6           0       -1.127817   -1.466906   -0.133755
     20          6           0       -1.661066   -1.665472    1.151099
     21          6           0       -2.000025   -1.243915   -1.210097
     22          6           0       -3.036203   -1.645070    1.355511
     23          1           0       -0.976966   -1.829640    1.976279
     24          6           0       -3.378972   -1.217805   -1.003288
     25          1           0       -1.611000   -1.079441   -2.208397
     26          6           0       -3.898430   -1.419016    0.276932
     27          1           0       -3.439469   -1.800289    2.351458
     28          1           0       -4.046348   -1.037619   -1.840128
     29          1           0       -4.972479   -1.398392    0.435704
     30          6           0        0.335793    1.789979    0.163553
     31          6           0       -0.151912    2.126260   -1.111322
     32          6           0       -0.562152    1.703684    1.238513
     33          6           0       -1.508064    2.360762   -1.308906
     34          1           0        0.551512    2.192584   -1.934174
     35          6           0       -1.922581    1.933380    1.038083
     36          1           0       -0.210412    1.435119    2.228133
     37          6           0       -2.397359    2.258132   -0.233613
     38          1           0       -1.876758    2.614901   -2.297804
     39          1           0       -2.612881    1.843333    1.870299
     40          1           0       -3.458570    2.425814   -0.389234
 ---------------------------------------------------------------------

 The electronic state is 1-A.
 Alpha  occ. eigenvalues --  -19.14931 -19.14675 -14.32312 -14.32135 -10.28641
 Alpha  occ. eigenvalues --  -10.28477 -10.20321 -10.20314 -10.20269 -10.20262
 Alpha  occ. eigenvalues --  -10.20183 -10.20160 -10.19918 -10.19870 -10.19752
 Alpha  occ. eigenvalues --  -10.19745 -10.19736 -10.19673 -10.18646 -10.18507
 Alpha  occ. eigenvalues --   -1.04568  -1.04280  -0.92380  -0.86436  -0.86128
 Alpha  occ. eigenvalues --   -0.77599  -0.77535  -0.75454  -0.75254  -0.73260
 Alpha  occ. eigenvalues --   -0.73044  -0.72922  -0.63260  -0.63134  -0.60962
 Alpha  occ. eigenvalues --   -0.60891  -0.55543  -0.55404  -0.51582  -0.51214
 Alpha  occ. eigenvalues --   -0.48117  -0.47462  -0.46695  -0.46646  -0.46305
 Alpha  occ. eigenvalues --   -0.46145  -0.45617  -0.44644  -0.44576  -0.43464
 Alpha  occ. eigenvalues --   -0.42763  -0.42689  -0.42655  -0.41992  -0.41847
 Alpha  occ. eigenvalues --   -0.39080  -0.39029  -0.38434  -0.37745  -0.36004
 Alpha  occ. eigenvalues --   -0.35981  -0.35685  -0.35165  -0.34730  -0.34686
 Alpha  occ. eigenvalues --   -0.26955  -0.26557  -0.26318  -0.26054  -0.25694
 Alpha  occ. eigenvalues --   -0.25095  -0.24253  -0.23079
 Alpha virt. eigenvalues --   -0.06591  -0.05797  -0.01268  -0.00593   0.03583
 Alpha virt. eigenvalues --    0.03695   0.07665   0.09752   0.09947   0.11055
 Alpha virt. eigenvalues --    0.12183   0.12800   0.14770   0.15190   0.15317

 Mulliken charges:
               1
     1  C    0.403363
     2  H    0.255037
     3  C    0.409154
     4  O   -0.505828
     5  O   -0.503042
     6  N   -0.557097
     7  H    0.257364
     8  N   -0.563584
     9  H    0.271367
    10  H    0.270400
    11  C   -0.399914
    12  H    0.146393
    13  H    0.150573
    14  H    0.124114
    15  C   -0.406271
    16  H    0.142391
    17  H    0.160191
    18  H    0.129765
    19  C    0.062817
    20  C   -0.102740
    21  C   -0.116069
    22  C   -0.099084
    23  H    0.111339
    24  C   -0.102254
    25  H    0.111797
    26  C   -0.084963
    27  H    0.109344
    28  H    0.110077
    29  H    0.111849
    30  C    0.040860
    31  C   -0.112836
    32  C   -0.116935
    33  C   -0.097578
    34  H    0.114617
    35  C   -0.091397
    36  H    0.112568
    37  C   -0.077107
    38  H    0.109988
    39  H    0.109826
    40  H    0.111505
 Sum of Mulliken charges =  -0.00000

 Dipole moment (field-independent basis, Debye):
    X=             -9.7712    Y=              2.1429    Z=              0.1512  Tot=             10.0046
 Quadrupole moment (field-independent basis, Debye-Ang):
   XX=           -136.0271   YY=           -125.0118   ZZ=           -102.1660
   XY=              7.1016   XZ=              4.2619   YZ=              5.1626

 Normal termination of Gaussian 16 at Wed May  8 23:52:54 2019.
