 Gaussian 16, Revision B.01,
 Gaussian 16:  ES64L-G16RevB.01 20-Dec-2017

 ----------------------------------------------------------------------
 #p opt freq b3lyp/6-31g(d,p) scrf=(iefpcm,solvent=acetonitrile) empiri
 caldispersion=gd3
 ----------------------------------------------------------------------

 -------------------
 Title Card Required
 -------------------
 Symbolic Z-matrix:
 Charge =  0 Multiplicity = 1

 SCF Done:  E(RB3LYP) =  -110.599467379     A.U. after    9 cycles
 SCF Done:  E(RB3LYP) =  -110.638491775     A.U. after    9 cycles
 SCF Done:  E(RB3LYP) =  -110.631104166     A.U. after    9 cycles
 SCF Done:  E(RB3LYP) =  -110.636051839     A.U. after    8 cycles
 SCF Done:  E(RB3LYP) =  -110.641353030     A.U. after    7 cycles
 SCF Done:  E(RB3LYP) =  -110.642237027     A.U. after    8 cycles
 SCF Done:  E(RB3LYP) =  -110.642267164     A.U. after    7 cycles
 Optimization completed.
    -- Stationary point found.
 Normal termination of Gaussian 16 at Fri May 10 16:11:49 2019.

 ----------------------------------------------------------------------
 #P Geom=AllCheck Guess=TCheck SCRF=Check GenChk RB3LYP/6-31G(d,p) Freq
 ----------------------------------------------------------------------

 Structure from the checkpoint file:  "B-cis.chk"
 -------------------
 Title Card Required
 -------------------
 Charge =  0 Multiplicity = 1

                         Standard orientation:
 ---------------------------------------------------------------------
 Center     Atomic      Atomic             Coordinates (Angstroms)
 Number     Number       Type             X           Y           Z
 ---------------------------------------------------------------------
      1          7           0       -0.000000   -0.621352   -0.120036
      2          1           0        0.001195   -1.023543    0.840250
      3          7           0        0.000000    0.621352   -0.120036
      4          1           0       -0.001195    1.023543    0.840250
 ---------------------------------------------------------------------

 SCF Done:  E(RB3LYP) =  -110.642267164     A.U. after    1 cycles

 The electronic state is 1-A.
 Alpha  occ. eigenvalues --  -14.39567 -14.39516  -1.03106  -0.68003  -0.56011
 Alpha  occ. eigenvalues --   -0.39348  -0.38119  -0.24744
 Alpha virt. eigenvalues --   -0.05614   0.06928   0.15755   0.36040   0.62499
 Alpha virt. eigenvalues --    0.64558   0.64792   0.68949   0.72466   0.74835
 Alpha virt. eigenvalues --    0.86519   0.90360   0.92493   1.28447   1.36894

 Mulliken charges:
               1
     1  N   -0.265990
     2  H    0.265990
     3  N   -0.265990
     4  H    0.265990
 Sum of Mulliken charges =   0.00000

 Dipole moment (field-independent basis, Debye):
    X=             -0.0000    Y=              0.0000    Z=              3.3858  Tot=              3.3858
 Quadrupole moment (field-independent basis, Debye-Ang):
   XX=            -11.8715   YY=            -12.1945   ZZ=            -11.3671
   XY=             -0.0027   XZ=              0.0000   YZ=              0.0000

  Exact polarizability:   7.698  -0.007  24.163   0.000  -0.000  15.324
 Approx polarizability:   9.925  -0.004  33.391  -0.000   0.000  17.375

                      1                      2                      3
                      A                      A                      B
 Frequencies --   1279.7115              1375.4617              1562.6473
 Red. masses --      1.1880                 1.0296                 1.3209
 Frc consts  --      1.1462                 1.1477                 1.9004
 IR Inten    --      0.0000                 5.7956                97.5954

                      4                      5                      6
                      A                      B                      A
 Frequencies --   1672.4245              3129.3098              3218.7806
 Red. masses --     10.8026                 1.0737                 1.0750
 Frc consts  --     17.8022                 6.1950                 6.5620
 IR Inten    --     10.6456                89.3102                25.7979

 - Thermochemistry -
 -------------------
 Temperature   298.150 Kelvin.  Pressure   1.00000 Atm.
 Atom     1 has atomic number  7 and mass  14.00307

 Molecular mass:    30.02180 amu.
 Principal axes and moments of inertia in atomic units:
                           1         2         3
     Eigenvalues --     6.19200  46.15326  52.34524
           X           -0.00019  -0.00000   1.00000
           Y            1.00000  -0.00000   0.00019
           Z            0.00000   1.00000   0.00000
 This molecule is an asymmetric top.
 Rotational symmetry number  2.
 Rotational temperatures (Kelvin)     13.98804     1.87666     1.65467
 Rotational constants (GHZ):         291.46347    39.10322    34.47765
 Zero-point vibrational energy      73201.5 (Joules/Mol)
                                   17.49558 (Kcal/Mol)
 Vibrational temperatures:   1841.22  1978.98  2248.30  2406.25  4502.38
          (Kelvin)           4631.11

 Zero-point correction=                           0.027881 (Hartree/Particle)
 Thermal correction to Energy=                    0.030740
 Thermal correction to Enthalpy=                  0.031684
 Thermal correction to Gibbs Free Energy=         0.006895
 Sum of electronic and zero-point Energies=           -110.614386
 Sum of electronic and thermal Energies=              -110.611527
 Sum of electronic and thermal Enthalpies=            -110.610583
 Sum of electronic and thermal Free Energies=         -110.635372

                     E (Thermal)             CV                S
                      KCal/Mol        Cal/Mol-Kelvin    Cal/Mol-Kelvin
 Total                   19.290              6.336             52.173
 Electronic               0.000              0.000              0.000
 Translational            0.889              2.981             36.131
 Rotational               0.889              2.981             15.977
 Vibrational             17.512              0.374              0.064

 Optimization completed.
    -- Stationary point found.
 Normal termination of Gaussian 16 at Fri May 10 16:11:58 2019.
