 Gaussian 16, Revision B.01,
 Gaussian 16:  ES64L-G16RevB.01 20-Dec-2017

 ----------------------------------------------------------------------
 #p opt freq b3lyp/6-31g(d,p) scrf=(iefpcm,solvent=acetonitrile) empiri
 caldispersion=gd3
 ----------------------------------------------------------------------

 -------------------
 Title Card Required
 -------------------
 Symbolic Z-matrix:
 Charge =  0 Multiplicity = 1

 SCF Done:  E(RB3LYP) =  -110.643791439     A.U. after    8 cycles
 SCF Done:  E(RB3LYP) =  -110.645528557     A.U. after    8 cycles
 SCF Done:  E(RB3LYP) =  -110.647427928     A.U. after    7 cycles
 SCF Done:  E(RB3LYP) =  -110.647428863     A.U. after    6 cycles
 Optimization completed.
    -- Stationary point found.
 Normal termination of Gaussian 16 at Fri May 10 16:12:40 2019.

 ----------------------------------------------------------------------
 #P Geom=AllCheck Guess=TCheck SCRF=Check GenChk RB3LYP/6-31G(d,p) Freq
 ----------------------------------------------------------------------

 Structure from the checkpoint file:  "B-trans.chk"
 -------------------
 Title Card Required
 -------------------
 Charge =  0 Multiplicity = 1

                         Standard orientation:
 ---------------------------------------------------------------------
 Center     Atomic      Atomic             Coordinates (Angstroms)
 Number     Number       Type             X           Y           Z
 ---------------------------------------------------------------------
      1          7           0       -0.000000    0.623176    0.000000
      2          1           0       -0.995247    0.917841    0.000000
      3          7           0        0.000000   -0.623176    0.000000
      4          1           0        0.995247   -0.917841    0.000000
 ---------------------------------------------------------------------

 SCF Done:  E(RB3LYP) =  -110.647428863     A.U. after    1 cycles

 The electronic state is 1-AG.
 Alpha  occ. eigenvalues --  -14.39269 -14.39218  -1.03045  -0.69531  -0.48439
 Alpha  occ. eigenvalues --   -0.44009  -0.39203  -0.24221
 Alpha virt. eigenvalues --   -0.05429   0.11110   0.11438   0.33507   0.61556
 Alpha virt. eigenvalues --    0.64888   0.67364   0.69151   0.75082   0.75438
 Alpha virt. eigenvalues --    0.87653   0.88601   0.92469   1.20722   1.39555

 Mulliken charges:
               1
     1  N   -0.278538
     2  H    0.278538
     3  N   -0.278538
     4  H    0.278538
 Sum of Mulliken charges =  -0.00000

 Dipole moment (field-independent basis, Debye):
    X=             -0.0000    Y=             -0.0000    Z=              0.0000  Tot=              0.0000
 Quadrupole moment (field-independent basis, Debye-Ang):
   XX=            -10.1386   YY=            -12.8311   ZZ=            -11.8866
   XY=             -3.5462   XZ=              0.0000   YZ=              0.0000

  Exact polarizability:  17.060  -6.044  21.984  -0.000   0.000   7.318
 Approx polarizability:  18.587  -5.774  30.986  -0.000   0.000   9.294

                      1                      2                      3
                     AU                     BU                     AG
 Frequencies --   1342.2488              1361.4080              1606.3613
 Red. masses --      1.0748                 1.0748                 1.2904
 Frc consts  --      1.1409                 1.1737                 1.9618
 IR Inten    --    125.7053               122.0672                 0.0000

                      4                      5                      6
                     AG                     AG                     BU
 Frequencies --   1658.1557              3235.0293              3258.8340
 Red. masses --      8.6743                 1.0728                 1.0748
 Frc consts  --     14.0520                 6.6148                 6.7251
 IR Inten    --      0.0000                 0.0000                53.0599

 - Thermochemistry -
 -------------------
 Temperature   298.150 Kelvin.  Pressure   1.00000 Atm.
 Atom     1 has atomic number  7 and mass  14.00307

 Molecular mass:    30.02180 amu.
 Principal axes and moments of inertia in atomic units:
                           1         2         3
     Eigenvalues --     6.01793  46.01503  52.03296
           X           -0.16673   0.98600   0.00000
           Y            0.98600   0.16673   0.00000
           Z            0.00000   0.00000   1.00000
 This molecule is an asymmetric top.
 Rotational symmetry number  2.
 Rotational temperatures (Kelvin)     14.39265     1.88230     1.66460
 Rotational constants (GHZ):         299.89422    39.22069    34.68458
 Zero-point vibrational energy      74539.5 (Joules/Mol)
                                   17.81538 (Kcal/Mol)
 Vibrational temperatures:   1931.20  1958.76  2311.20  2385.72  4654.49
          (Kelvin)           4688.74

 Zero-point correction=                           0.028391 (Hartree/Particle)
 Thermal correction to Energy=                    0.031247
 Thermal correction to Enthalpy=                  0.032191
 Thermal correction to Gibbs Free Energy=         0.007423
 Sum of electronic and zero-point Energies=           -110.619038
 Sum of electronic and thermal Energies=              -110.616182
 Sum of electronic and thermal Enthalpies=            -110.615238
 Sum of electronic and thermal Free Energies=         -110.640006

                     E (Thermal)             CV                S
                      KCal/Mol        Cal/Mol-Kelvin    Cal/Mol-Kelvin
 Total                   19.608              6.305             52.129
 Electronic               0.000              0.000              0.000
 Translational            0.889              2.981             36.131
 Rotational               0.889              2.981             15.940
 Vibrational             17.830              0.343              0.057

 Optimization completed.
    -- Stationary point found.
 Normal termination of Gaussian 16 at Fri May 10 16:12:48 2019.
