 Gaussian 16, Revision A.03,
 Gaussian 16:  ES64L-G16RevA.03 25-Dec-2016

 ----------------------------------------------------------------------
 #p td=(50-50,nstates=100) rb3lyp/6-31g(d,p) scrf=(iefpcm,solvent=aceto
 nitrile) guess=(core,mix,always) empiricaldispersion=gd3
 ----------------------------------------------------------------------

 After the closed shell GS is optimized, find out which excited state w
 e need
 ----------------------------------------------------------------------
 Symbolic Z-matrix:
 Charge =  0 Multiplicity = 1

                         Standard orientation:
 ---------------------------------------------------------------------
 Center     Atomic      Atomic             Coordinates (Angstroms)
 Number     Number       Type             X           Y           Z
 ---------------------------------------------------------------------
      1          6           0        0.354292   -1.479367   -0.300682
      2          1           0        4.618022   -1.283283    1.298049
      3          6           0        1.789590    1.486036    0.313703
      4          8           0        2.516551    1.447090   -0.678564
      5          8           0        1.087393   -1.591673    0.682724
      6          7           0        4.641778   -0.832169   -0.640352
      7          1           0        4.542537   -1.382863   -1.490021
      8          7           0        4.216729   -1.684188    0.453524
      9          1           0        3.201097   -1.640852    0.567673
     10          1           0        4.015195   -0.029334   -0.735132
     11          6           0        0.944413   -1.344207   -1.686276
     12          1           0        0.596890   -2.155483   -2.333883
     13          1           0        0.629864   -0.399910   -2.139806
     14          1           0        2.031853   -1.359962   -1.621332
     15          6           0        2.344620    1.203121    1.691376
     16          1           0        2.133242    2.030138    2.376266
     17          1           0        1.877621    0.300528    2.095869
     18          1           0        3.421182    1.048234    1.619719
     19          6           0       -1.127817   -1.466906   -0.133755
     20          6           0       -1.661066   -1.665472    1.151099
     21          6           0       -2.000025   -1.243915   -1.210097
     22          6           0       -3.036203   -1.645070    1.355511
     23          1           0       -0.976966   -1.829640    1.976279
     24          6           0       -3.378972   -1.217805   -1.003288
     25          1           0       -1.611000   -1.079441   -2.208397
     26          6           0       -3.898430   -1.419016    0.276932
     27          1           0       -3.439469   -1.800289    2.351458
     28          1           0       -4.046348   -1.037619   -1.840128
     29          1           0       -4.972479   -1.398392    0.435704
     30          6           0        0.335793    1.789979    0.163553
     31          6           0       -0.151912    2.126260   -1.111322
     32          6           0       -0.562152    1.703684    1.238513
     33          6           0       -1.508064    2.360762   -1.308906
     34          1           0        0.551512    2.192584   -1.934174
     35          6           0       -1.922581    1.933380    1.038083
     36          1           0       -0.210412    1.435119    2.228133
     37          6           0       -2.397359    2.258132   -0.233613
     38          1           0       -1.876758    2.614901   -2.297804
     39          1           0       -2.612881    1.843333    1.870299
     40          1           0       -3.458570    2.425814   -0.389234
 ---------------------------------------------------------------------

 SCF Done:  E(RB3LYP) =  -881.758711641     A.U. after   24 cycles

 Excitation energies and oscillator strengths:

 Excited State   1:      Triplet-A      3.2886 eV  377.01 nm  f=0.0000  <S**2>=2.000
      66 -> 75         0.16045
      66 -> 77         0.13749
      68 -> 75         0.28512
      69 -> 75         0.16736
      70 -> 74         0.43766
      70 -> 75        -0.11089
      71 -> 74         0.25095
      71 -> 76        -0.18113
 This state for optimization and/or second-order correction.
 Total Energy, E(TD-HF/TD-DFT) =  -881.637856009
 Copying the excited state density for this state as the 1-particle RhoCI density.

 Excited State   2:      Triplet-A      3.3015 eV  375.54 nm  f=0.0000  <S**2>=2.000
      66 -> 74         0.16244
      66 -> 76        -0.13622
      67 -> 74         0.12947
      68 -> 74         0.33108
      69 -> 74         0.23415
      70 -> 75         0.38137
      71 -> 75         0.19584
      71 -> 77         0.17698

 Excited State   3:      Triplet-A      3.3498 eV  370.12 nm  f=0.0000  <S**2>=2.000
      67 -> 74         0.40266
      68 -> 75        -0.14983
      69 -> 75         0.33824
      73 -> 74        -0.37184

 Excited State   4:      Triplet-A      3.3828 eV  366.52 nm  f=0.0000  <S**2>=2.000
      66 -> 74        -0.12013
      67 -> 74         0.11075
      67 -> 75         0.33944
      68 -> 74        -0.22250
      69 -> 74         0.40559
      69 -> 75        -0.16639
      73 -> 75        -0.27135

 Excited State   5:      Singlet-A      3.7176 eV  333.51 nm  f=0.0027  <S**2>=0.000
      67 -> 74        -0.28289
      69 -> 75        -0.22248
      73 -> 74         0.58797

 Excited State   6:      Triplet-A      3.7969 eV  326.54 nm  f=0.0000  <S**2>=2.000
      66 -> 75         0.23032
      68 -> 75        -0.19599
      70 -> 74        -0.24015
      71 -> 74         0.56262

 Excited State   7:      Singlet-A      3.8247 eV  324.17 nm  f=0.0008  <S**2>=0.000
      67 -> 75         0.27206
      69 -> 74         0.41824
      69 -> 75        -0.16108
      70 -> 74        -0.10110
      73 -> 75        -0.41183

 Excited State   8:      Triplet-A      3.8889 eV  318.82 nm  f=0.0000  <S**2>=2.000
      66 -> 74         0.34368
      68 -> 74        -0.23700
      70 -> 75        -0.18638
      71 -> 75         0.50351

 Excited State   9:      Triplet-A      3.9829 eV  311.29 nm  f=0.0000  <S**2>=2.000
      67 -> 74         0.24841
      69 -> 75         0.23645
      73 -> 74         0.57425
      73 -> 75        -0.15290

 Excited State  10:      Singlet-A      4.1123 eV  301.49 nm  f=0.0043  <S**2>=0.000
      67 -> 74         0.35205
      69 -> 74        -0.12970
      69 -> 75         0.35727
      70 -> 74         0.12210
      73 -> 74         0.35875
      73 -> 75        -0.22941

 Excited State  11:      Triplet-A      4.1290 eV  300.28 nm  f=0.0000  <S**2>=2.000
      67 -> 74         0.10074
      69 -> 74         0.18569
      72 -> 74         0.25958
      73 -> 74         0.12616
      73 -> 75         0.58966

 Excited State  12:      Singlet-A      4.1695 eV  297.36 nm  f=0.0051  <S**2>=0.000
      67 -> 74         0.18161
      67 -> 75         0.11789
      69 -> 74         0.21903
      72 -> 74         0.43403
      73 -> 74         0.12175
      73 -> 75         0.43487

 Excited State  13:      Triplet-A      4.2278 eV  293.26 nm  f=0.0000  <S**2>=2.000
      69 -> 74        -0.12596
      72 -> 74         0.64773
      73 -> 75        -0.21029

 Excited State  14:      Singlet-A      4.2469 eV  291.94 nm  f=0.0001  <S**2>=0.000
      67 -> 74        -0.15071
      67 -> 75        -0.11641
      69 -> 74        -0.23366
      72 -> 74         0.54842
      73 -> 75        -0.28730

 Excited State  15:      Singlet-A      4.3432 eV  285.47 nm  f=0.0009  <S**2>=0.000
      70 -> 74        -0.10560
      71 -> 74         0.67818

 Excited State  16:      Triplet-A      4.3810 eV  283.01 nm  f=0.0000  <S**2>=2.000
      66 -> 77        -0.29616
      68 -> 77         0.16909
      70 -> 74         0.25011
      70 -> 76        -0.19980
      71 -> 74         0.11296
      71 -> 76         0.47112

 Excited State  17:      Triplet-A      4.4248 eV  280.20 nm  f=0.0000  <S**2>=2.000
      66 -> 76        -0.31528
      68 -> 74        -0.22674
      68 -> 76         0.18434
      70 -> 76        -0.11511
      70 -> 77        -0.15294
      71 -> 75        -0.10899
      71 -> 77         0.42828
      72 -> 75        -0.22361

 Excited State  18:      Triplet-A      4.4346 eV  279.58 nm  f=0.0000  <S**2>=2.000
      66 -> 76        -0.10656
      71 -> 77         0.14905
      72 -> 75         0.65676

 Excited State  19:      Singlet-A      4.4392 eV  279.30 nm  f=0.0002  <S**2>=0.000
      72 -> 75         0.69142

 Excited State  20:      Singlet-A      4.5648 eV  271.61 nm  f=0.0334  <S**2>=0.000
      68 -> 74        -0.19289
      69 -> 75        -0.12421
      70 -> 74         0.49223
      71 -> 75         0.39566

 Excited State  21:      Singlet-A      4.5881 eV  270.23 nm  f=0.0093  <S**2>=0.000
      70 -> 74        -0.38424
      70 -> 75        -0.21858
      71 -> 74        -0.11813
      71 -> 75         0.50981

 Excited State  22:      Triplet-A      4.6134 eV  268.75 nm  f=0.0000  <S**2>=2.000
      66 -> 74        -0.11402
      68 -> 74        -0.28225
      68 -> 75        -0.17134
      69 -> 74        -0.15648
      70 -> 74         0.29257
      70 -> 75         0.48165

 Excited State  23:      Triplet-A      4.7100 eV  263.24 nm  f=0.0000  <S**2>=2.000
      66 -> 74         0.49254
      66 -> 75         0.14773
      68 -> 75        -0.17002
      70 -> 74         0.12321
      71 -> 75        -0.37959

 Excited State  24:      Singlet-A      4.7289 eV  262.18 nm  f=0.0020  <S**2>=0.000
      67 -> 75        -0.14542
      68 -> 74         0.42945
      69 -> 74         0.25271
      69 -> 75        -0.11701
      70 -> 74         0.14855
      70 -> 75        -0.42664

 Excited State  25:      Triplet-A      4.7495 eV  261.04 nm  f=0.0000  <S**2>=2.000
      66 -> 75         0.11590
      67 -> 74        -0.37746
      67 -> 75         0.11084
      68 -> 74        -0.18885
      69 -> 74         0.12685
      69 -> 75         0.48004
      70 -> 74        -0.13338

 Excited State  26:      Singlet-A      4.7663 eV  260.12 nm  f=0.0002  <S**2>=0.000
      67 -> 74        -0.42378
      68 -> 75        -0.15415
      69 -> 74         0.26298
      69 -> 75         0.45973

 Excited State  27:      Triplet-A      4.7910 eV  258.79 nm  f=0.0000  <S**2>=2.000
      66 -> 74         0.11852
      66 -> 75         0.14991
      67 -> 74         0.17245
      67 -> 75         0.24510
      68 -> 74        -0.12500
      68 -> 75         0.43257
      69 -> 74        -0.31278
      70 -> 74        -0.17368
      70 -> 75         0.14079

 Excited State  28:      Singlet-A      4.7943 eV  258.60 nm  f=0.0236  <S**2>=0.000
      66 -> 74        -0.36958
      67 -> 74        -0.14155
      67 -> 75         0.38217
      68 -> 74         0.31034
      68 -> 75        -0.12081
      69 -> 74        -0.16050
      70 -> 75         0.12696
      71 -> 75         0.13388

 Excited State  29:      Triplet-A      4.8009 eV  258.25 nm  f=0.0000  <S**2>=2.000
      67 -> 74        -0.15046
      67 -> 75         0.51673
      68 -> 74         0.24720
      68 -> 75        -0.26152
      69 -> 74        -0.21423
      70 -> 74         0.12118

 Excited State  30:      Singlet-A      4.8444 eV  255.93 nm  f=0.0177  <S**2>=0.000
      66 -> 74         0.46784
      67 -> 75         0.43045
      69 -> 74        -0.15068
      70 -> 75        -0.18657

 Excited State  31:      Triplet-A      4.8485 eV  255.71 nm  f=0.0000  <S**2>=2.000
      66 -> 74        -0.16597
      66 -> 75         0.56318
      71 -> 74        -0.27949
      71 -> 75         0.14483

 Excited State  32:      Singlet-A      4.9425 eV  250.86 nm  f=0.0124  <S**2>=0.000
      66 -> 75        -0.37263
      67 -> 75         0.10056
      68 -> 74        -0.12056
      68 -> 75         0.50632
      70 -> 75        -0.13110

 Excited State  33:      Triplet-A      5.1093 eV  242.67 nm  f=0.0000  <S**2>=2.000
      66 -> 75         0.11839
      66 -> 76        -0.17885
      66 -> 77        -0.13548
      67 -> 76        -0.10573
      68 -> 76        -0.15500
      68 -> 77        -0.24847
      70 -> 76         0.44175
      70 -> 77         0.16885
      71 -> 76         0.24208
      71 -> 77         0.13933

 Excited State  34:      Singlet-A      5.1189 eV  242.21 nm  f=0.1857  <S**2>=0.000
      66 -> 74         0.13827
      66 -> 75         0.35976
      68 -> 74         0.24782
      68 -> 75         0.39428
      69 -> 75         0.17143
      70 -> 75         0.22466
      71 -> 75         0.11430

 Excited State  35:      Triplet-A      5.1561 eV  240.46 nm  f=0.0000  <S**2>=2.000
      66 -> 76         0.11230
      68 -> 76         0.38598
      68 -> 77        -0.26499
      69 -> 76         0.14322
      69 -> 77        -0.14596
      70 -> 76         0.17678
      70 -> 77        -0.36328
      71 -> 77        -0.17909

 Excited State  36:      Singlet-A      5.1619 eV  240.19 nm  f=0.3065  <S**2>=0.000
      66 -> 74        -0.27002
      66 -> 75         0.41707
      67 -> 75         0.13958
      68 -> 74        -0.24290
      70 -> 74         0.11325
      70 -> 75        -0.32309
      70 -> 76         0.11879

 Excited State  37:      Triplet-A      5.4173 eV  228.87 nm  f=0.0000  <S**2>=2.000
      59 -> 75         0.17430
      62 -> 74         0.30662
      62 -> 75        -0.12267
      63 -> 74        -0.23347
      63 -> 75         0.35072
      66 -> 79        -0.10387
      68 -> 79        -0.15154
      70 -> 78         0.16244
      70 -> 79         0.14912

 Excited State  38:      Triplet-A      5.4599 eV  227.08 nm  f=0.0000  <S**2>=2.000
      73 -> 76         0.68747

 Excited State  39:      Singlet-A      5.4606 eV  227.05 nm  f=0.0003  <S**2>=0.000
      73 -> 76         0.69569

 Excited State  40:      Triplet-A      5.4734 eV  226.52 nm  f=0.0000  <S**2>=2.000
      59 -> 74         0.19636
      62 -> 74         0.29210
      62 -> 75         0.32042
      63 -> 74         0.27646
      68 -> 78         0.18170
      70 -> 79        -0.13499

 Excited State  41:      Triplet-A      5.6449 eV  219.64 nm  f=0.0000  <S**2>=2.000
      67 -> 77        -0.11106
      69 -> 76         0.11571
      73 -> 77         0.68165

 Excited State  42:      Singlet-A      5.6493 eV  219.47 nm  f=0.0001  <S**2>=0.000
      67 -> 77        -0.10298
      73 -> 77         0.68795

 Excited State  43:      Singlet-A      5.8190 eV  213.07 nm  f=0.0004  <S**2>=0.000
      69 -> 76         0.10211
      72 -> 76         0.69398

 Excited State  44:      Triplet-A      5.8191 eV  213.07 nm  f=0.0000  <S**2>=2.000
      69 -> 76         0.11331
      72 -> 76         0.68804

 Excited State  45:      Singlet-A      5.9262 eV  209.21 nm  f=0.0119  <S**2>=0.000
      66 -> 77         0.15561
      70 -> 76         0.16598
      71 -> 76         0.62179
      71 -> 77         0.14533

 Excited State  46:      Triplet-A      5.9394 eV  208.75 nm  f=0.0000  <S**2>=2.000
      67 -> 77        -0.11658
      68 -> 76        -0.13912
      69 -> 76         0.56529
      69 -> 77         0.24155
      70 -> 76        -0.14035
      72 -> 76        -0.13753
      73 -> 77        -0.12578

 Excited State  47:      Singlet-A      5.9592 eV  208.06 nm  f=0.0014  <S**2>=0.000
      67 -> 77        -0.10407
      68 -> 76        -0.11200
      69 -> 76         0.54073
      69 -> 77         0.23680
      70 -> 76        -0.25203
      72 -> 76        -0.11529
      73 -> 77        -0.10669

 Excited State  48:      Triplet-A      6.0064 eV  206.42 nm  f=0.0000  <S**2>=2.000
      67 -> 76        -0.17532
      67 -> 77         0.10740
      69 -> 76        -0.10661
      69 -> 77         0.11557
      72 -> 77         0.64746

 Excited State  49:      Singlet-A      6.0105 eV  206.28 nm  f=0.0001  <S**2>=0.000
      67 -> 76        -0.12443
      69 -> 76        -0.11320
      72 -> 77         0.67097

 Excited State  50:      Singlet-A      6.0311 eV  205.57 nm  f=0.0066  <S**2>=0.000
      67 -> 76         0.11345
      68 -> 77         0.20152
      69 -> 76         0.28884
      70 -> 76         0.52651
      70 -> 77        -0.13096
      71 -> 76        -0.14444
      71 -> 77         0.11257

 Excited State  51:      Triplet-A      6.0604 eV  204.58 nm  f=0.0000  <S**2>=2.000
      67 -> 76         0.43744
      67 -> 77        -0.10826
      68 -> 76        -0.19508
      68 -> 77         0.21097
      69 -> 76         0.10627
      69 -> 77        -0.25448
      70 -> 76         0.16107
      70 -> 77        -0.16161
      71 -> 77         0.12172
      72 -> 77         0.21568

 Excited State  52:      Triplet-A      6.0784 eV  203.97 nm  f=0.0000  <S**2>=2.000
      66 -> 77         0.11098
      67 -> 76         0.23524
      68 -> 76         0.37832
      69 -> 76         0.17029
      70 -> 77         0.45563
      71 -> 76         0.10218

 Excited State  53:      Singlet-A      6.0981 eV  203.32 nm  f=0.0032  <S**2>=0.000
      67 -> 76         0.49038
      67 -> 77        -0.13676
      68 -> 76        -0.22455
      69 -> 77        -0.31387
      70 -> 76        -0.15457
      71 -> 77         0.10868
      72 -> 77         0.18247

 Excited State  54:      Singlet-A      6.1058 eV  203.06 nm  f=0.0561  <S**2>=0.000
      66 -> 76         0.35197
      67 -> 76        -0.11219
      68 -> 76        -0.12868
      71 -> 76        -0.10662
      71 -> 77         0.53621

 Excited State  55:      Triplet-A      6.1060 eV  203.05 nm  f=0.0000  <S**2>=2.000
      66 -> 76         0.47194
      66 -> 77         0.17252
      67 -> 77         0.12309
      69 -> 77         0.13628
      70 -> 76         0.10221
      71 -> 76         0.21721
      71 -> 77         0.35778

 Excited State  56:      Singlet-A      6.1304 eV  202.25 nm  f=0.0037  <S**2>=0.000
      67 -> 76         0.13260
      68 -> 76         0.46457
      69 -> 76         0.12855
      70 -> 77         0.46030
      71 -> 77         0.12414

 Excited State  57:      Triplet-A      6.1362 eV  202.05 nm  f=0.0000  <S**2>=2.000
      66 -> 77        -0.20494
      67 -> 76        -0.12801
      68 -> 76         0.18773
      68 -> 77         0.45269
      69 -> 77         0.17437
      70 -> 76         0.32788
      71 -> 76        -0.17540

 Excited State  58:      Triplet-A      6.2234 eV  199.22 nm  f=0.0000  <S**2>=2.000
      66 -> 76        -0.25923
      66 -> 77         0.46700
      67 -> 77         0.11869
      68 -> 77         0.13351
      69 -> 77         0.13091
      70 -> 76         0.10627
      70 -> 77        -0.13198
      71 -> 76         0.25099
      71 -> 77        -0.20019

 Excited State  59:      Singlet-A      6.2968 eV  196.90 nm  f=0.0907  <S**2>=0.000
      66 -> 74         0.11525
      66 -> 76        -0.25047
      66 -> 79         0.13215
      67 -> 76         0.11073
      67 -> 77         0.18676
      68 -> 76        -0.29390
      69 -> 77         0.28845
      70 -> 77         0.30465
      71 -> 75         0.10434
      71 -> 78        -0.21794

 Excited State  60:      Triplet-A      6.3001 eV  196.80 nm  f=0.0000  <S**2>=2.000
      66 -> 77        -0.17891
      67 -> 76         0.38148
      67 -> 77         0.36389
      68 -> 77        -0.16930
      69 -> 77         0.36494

 Excited State  61:      Singlet-A      6.3065 eV  196.60 nm  f=0.0291  <S**2>=0.000
      67 -> 76         0.38731
      67 -> 77         0.32334
      68 -> 76         0.12302
      69 -> 77         0.32951
      70 -> 77        -0.24025
      71 -> 78         0.11282

 Excited State  62:      Singlet-A      6.3478 eV  195.32 nm  f=0.0077  <S**2>=0.000
      66 -> 75         0.11262
      66 -> 77         0.23601
      66 -> 78        -0.12102
      68 -> 77         0.57127
      69 -> 77         0.10361
      71 -> 78        -0.11375
      71 -> 79         0.18479

 Excited State  63:      Triplet-A      6.3642 eV  194.82 nm  f=0.0000  <S**2>=2.000
      64 -> 74         0.29832
      64 -> 75         0.18156
      65 -> 74         0.41181
      65 -> 75         0.31910
      70 -> 78        -0.10904
      71 -> 78        -0.11013

 Excited State  64:      Triplet-A      6.3803 eV  194.32 nm  f=0.0000  <S**2>=2.000
      64 -> 74         0.40604
      64 -> 75        -0.35871
      65 -> 74        -0.34465
      65 -> 75         0.18277

 Excited State  65:      Triplet-A      6.4008 eV  193.70 nm  f=0.0000  <S**2>=2.000
      58 -> 74         0.10183
      59 -> 74        -0.15775
      62 -> 74        -0.17143
      64 -> 74         0.12345
      65 -> 74         0.11602
      65 -> 75         0.12868
      67 -> 77        -0.20009
      68 -> 78         0.16188
      69 -> 76        -0.10848
      69 -> 77         0.16616
      69 -> 78         0.12963
      70 -> 78         0.18711
      70 -> 79        -0.13783
      71 -> 78         0.25289
      71 -> 79        -0.15052

 Excited State  66:      Triplet-A      6.4147 eV  193.28 nm  f=0.0000  <S**2>=2.000
      64 -> 74         0.14682
      65 -> 75         0.12318
      67 -> 76        -0.10736
      67 -> 77         0.46151
      68 -> 78         0.10267
      69 -> 76         0.19247
      69 -> 77        -0.29250
      70 -> 78         0.11842

 Excited State  67:      Singlet-A      6.4202 eV  193.12 nm  f=0.0017  <S**2>=0.000
      67 -> 76        -0.11099
      67 -> 77         0.53997
      68 -> 77         0.10535
      69 -> 76         0.22790
      69 -> 77        -0.33545

 Excited State  68:      Triplet-A      6.4422 eV  192.46 nm  f=0.0000  <S**2>=2.000
      59 -> 74         0.14047
      59 -> 75        -0.14805
      60 -> 74        -0.12047
      61 -> 74        -0.18755
      61 -> 75         0.18455
      66 -> 79        -0.11568
      68 -> 79        -0.16044
      69 -> 79        -0.15440
      70 -> 78         0.22043
      70 -> 79         0.29814
      71 -> 79         0.14065
      73 -> 78        -0.11969
      73 -> 79        -0.10219

 Excited State  69:      Triplet-A      6.4837 eV  191.22 nm  f=0.0000  <S**2>=2.000
      59 -> 74         0.10292
      59 -> 75        -0.11462
      60 -> 74         0.21288
      61 -> 75        -0.16838
      66 -> 79        -0.17057
      67 -> 78        -0.17732
      68 -> 79        -0.12683
      69 -> 79         0.21827
      71 -> 78         0.18936
      71 -> 79         0.16889
      73 -> 78         0.27394
      73 -> 79         0.16392

 Excited State  70:      Triplet-A      6.4873 eV  191.12 nm  f=0.0000  <S**2>=2.000
      60 -> 74        -0.19695
      60 -> 75        -0.24094
      61 -> 74         0.24783
      66 -> 78        -0.14625
      67 -> 78         0.14459
      67 -> 79        -0.19552
      69 -> 78         0.20450
      71 -> 78        -0.14628
      71 -> 79         0.16083
      73 -> 78        -0.19197
      73 -> 79         0.27460

 Excited State  71:      Triplet-A      6.4975 eV  190.82 nm  f=0.0000  <S**2>=2.000
      60 -> 74        -0.11375
      63 -> 77         0.10098
      66 -> 78         0.12286
      66 -> 79        -0.15198
      67 -> 78         0.12359
      68 -> 78        -0.23641
      68 -> 79         0.19215
      70 -> 78        -0.21099
      71 -> 78         0.40363
      71 -> 79        -0.11644
      73 -> 78        -0.11292

 Excited State  72:      Singlet-A      6.5371 eV  189.66 nm  f=0.0005  <S**2>=0.000
      64 -> 74         0.21822
      64 -> 75         0.25910
      65 -> 74         0.53188
      65 -> 75         0.27811

 Excited State  73:      Triplet-A      6.5446 eV  189.44 nm  f=0.0000  <S**2>=2.000
      63 -> 76         0.12678
      66 -> 78        -0.16373
      66 -> 79        -0.16789
      68 -> 78         0.17863
      68 -> 79         0.13901
      69 -> 79        -0.10799
      70 -> 78        -0.10768
      70 -> 79        -0.28420
      71 -> 78         0.13396
      71 -> 79         0.41019

 Excited State  74:      Singlet-A      6.5497 eV  189.30 nm  f=0.0001  <S**2>=0.000
      64 -> 74         0.51686
      64 -> 75        -0.27638
      65 -> 74        -0.21049
      65 -> 75         0.27136

 Excited State  75:      Singlet-A      6.6278 eV  187.07 nm  f=0.0056  <S**2>=0.000
      65 -> 74        -0.10057
      67 -> 78        -0.14355
      69 -> 79         0.18047
      73 -> 78         0.56519

 The electronic state is 1-A.
 Alpha  occ. eigenvalues --  -19.14931 -19.14675 -14.32312 -14.32135 -10.28641
 Alpha  occ. eigenvalues --  -10.28477 -10.20321 -10.20314 -10.20269 -10.20262
 Alpha  occ. eigenvalues --  -10.20183 -10.20160 -10.19918 -10.19870 -10.19752
 Alpha  occ. eigenvalues --  -10.19745 -10.19736 -10.19673 -10.18646 -10.18507
 Alpha  occ. eigenvalues --   -1.04568  -1.04280  -0.92380  -0.86436  -0.86128
 Alpha  occ. eigenvalues --   -0.77599  -0.77536  -0.75454  -0.75254  -0.73260
 Alpha  occ. eigenvalues --   -0.73044  -0.72922  -0.63260  -0.63134  -0.60962
 Alpha  occ. eigenvalues --   -0.60891  -0.55543  -0.55404  -0.51582  -0.51214
 Alpha  occ. eigenvalues --   -0.48117  -0.47462  -0.46695  -0.46646  -0.46305
 Alpha  occ. eigenvalues --   -0.46145  -0.45617  -0.44644  -0.44576  -0.43464
 Alpha  occ. eigenvalues --   -0.42763  -0.42689  -0.42655  -0.41992  -0.41847
 Alpha  occ. eigenvalues --   -0.39080  -0.39029  -0.38434  -0.37745  -0.36004
 Alpha  occ. eigenvalues --   -0.35981  -0.35685  -0.35165  -0.34730  -0.34686
 Alpha  occ. eigenvalues --   -0.26955  -0.26557  -0.26318  -0.26054  -0.25694
 Alpha  occ. eigenvalues --   -0.25095  -0.24253  -0.23079
 Alpha virt. eigenvalues --   -0.06591  -0.05797  -0.01268  -0.00593   0.03583
 Alpha virt. eigenvalues --    0.03695   0.07665   0.09752   0.09947   0.11055
 Alpha virt. eigenvalues --    0.12183   0.12800   0.14770   0.15190   0.15317

 Mulliken charges:
               1
     1  C    0.403364
     2  H    0.255037
     3  C    0.409154
     4  O   -0.505828
     5  O   -0.503042
     6  N   -0.557097
     7  H    0.257364
     8  N   -0.563584
     9  H    0.271367
    10  H    0.270400
    11  C   -0.399914
    12  H    0.146393
    13  H    0.150573
    14  H    0.124114
    15  C   -0.406271
    16  H    0.142391
    17  H    0.160191
    18  H    0.129764
    19  C    0.062816
    20  C   -0.102740
    21  C   -0.116069
    22  C   -0.099085
    23  H    0.111338
    24  C   -0.102254
    25  H    0.111797
    26  C   -0.084962
    27  H    0.109344
    28  H    0.110077
    29  H    0.111849
    30  C    0.040861
    31  C   -0.112836
    32  C   -0.116935
    33  C   -0.097579
    34  H    0.114617
    35  C   -0.091397
    36  H    0.112568
    37  C   -0.077106
    38  H    0.109988
    39  H    0.109825
    40  H    0.111505
 Sum of Mulliken charges =  -0.00000

 Dipole moment (field-independent basis, Debye):
    X=             -9.7712    Y=              2.1429    Z=              0.1512  Tot=             10.0046
 Quadrupole moment (field-independent basis, Debye-Ang):
   XX=           -136.0271   YY=           -125.0118   ZZ=           -102.1660
   XY=              7.1016   XZ=              4.2618   YZ=              5.1626

 Normal termination of Gaussian 16 at Sun Jun 30 17:34:54 2019.
