 Gaussian 16, Revision A.03,
 Gaussian 16:  EM64M-G16RevA.03 25-Dec-2016

 ----------------------------------------------------------------------
 #p opt freq b3lyp/6-31g(d,p) scrf=(iefpcm,solvent=acetonitrile) empiri
 caldispersion=gd3
 ----------------------------------------------------------------------

 -------------------
 Title Card Required
 -------------------
 Symbolic Z-matrix:
 Charge =  0 Multiplicity = 1

 SCF Done:  E(RB3LYP) =  -109.394686405     A.U. after    7 cycles
 SCF Done:  E(RB3LYP) =  -109.485865295     A.U. after    8 cycles
 SCF Done:  E(RB3LYP) =  -109.524384652     A.U. after    8 cycles
 SCF Done:  E(RB3LYP) =  -109.524529876     A.U. after    6 cycles
 SCF Done:  E(RB3LYP) =  -109.524529921     A.U. after    5 cycles
 Optimization completed.
    -- Stationary point found.
 Normal termination of Gaussian 16 at Thu Jun 20 17:20:37 2019.

 ----------------------------------------------------------------------
 #P Geom=AllCheck Guess=TCheck SCRF=Check GenChk RB3LYP/6-31G(d,p) Freq
 ----------------------------------------------------------------------

 Structure from the checkpoint file:  "N2.chk"
 -------------------
 Title Card Required
 -------------------
 Charge =  0 Multiplicity = 1

                         Standard orientation:
 ---------------------------------------------------------------------
 Center     Atomic      Atomic             Coordinates (Angstroms)
 Number     Number       Type             X           Y           Z
 ---------------------------------------------------------------------
      1          7           0       -0.000000    0.000000    0.552636
      2          7           0        0.000000    0.000000   -0.552636
 ---------------------------------------------------------------------

 SCF Done:  E(RB3LYP) =  -109.524529921     A.U. after    1 cycles

 The electronic state is 1-SGG.
 Alpha  occ. eigenvalues --  -14.44528 -14.44363  -1.12193  -0.55248  -0.46038
 Alpha  occ. eigenvalues --   -0.46038  -0.42624
 Alpha virt. eigenvalues --   -0.02250  -0.02250   0.41149   0.59236   0.60851
 Alpha virt. eigenvalues --    0.60851   0.64056   0.75250   0.75250   0.78653
 Alpha virt. eigenvalues --    1.24054   1.45194   1.45194   1.54965   1.54965

 Mulliken charges:
               1
     1  N    0.000000
     2  N    0.000000
 Sum of Mulliken charges =   0.00000

 Dipole moment (field-independent basis, Debye):
    X=              0.0000    Y=              0.0000    Z=             -0.0000  Tot=              0.0000
 Quadrupole moment (field-independent basis, Debye-Ang):
   XX=            -10.0425   YY=            -10.0425   ZZ=            -11.6488
   XY=             -0.0000   XZ=              0.0000   YZ=              0.0000

  Exact polarizability:   6.685   0.000   6.685  -0.000   0.000  15.469
 Approx polarizability:   8.389  -0.000   8.389  -0.000   0.000  27.370

                      1
                     SGG
 Frequencies --   2458.9796
 Red. masses --     14.0031
 Frc consts  --     49.8865
 IR Inten    --      0.0000

 - Thermochemistry -
 -------------------
 Temperature   298.150 Kelvin.  Pressure   1.00000 Atm.
 Atom     1 has atomic number  7 and mass  14.00307

 Molecular mass:    28.00615 amu.
 Principal axes and moments of inertia in atomic units:
                           1         2         3
     Eigenvalues --     0.00000  30.54428  30.54428
           X           -0.00000   1.00000  -0.00000
           Y            0.00000   0.00000   1.00000
           Z            1.00000   0.00000  -0.00000
 This molecule is a prolate symmetric top.
 Rotational symmetry number  2.
 Rotational temperature (Kelvin)      2.83568
 Rotational constant (GHZ):          59.086071
 Zero-point vibrational energy      14708.0 (Joules/Mol)
                                    3.51529 (Kcal/Mol)
 Vibrational temperatures:   3537.92
          (Kelvin)

 Zero-point correction=                           0.005602 (Hartree/Particle)
 Thermal correction to Energy=                    0.007963
 Thermal correction to Enthalpy=                  0.008907
 Thermal correction to Gibbs Free Energy=        -0.012847
 Sum of electronic and zero-point Energies=           -109.518928
 Sum of electronic and thermal Energies=              -109.516567
 Sum of electronic and thermal Enthalpies=            -109.515623
 Sum of electronic and thermal Free Energies=         -109.537377

                     E (Thermal)             CV                S
                      KCal/Mol        Cal/Mol-Kelvin    Cal/Mol-Kelvin
 Total                    4.997              4.970             45.785
 Electronic               0.000              0.000              0.000
 Translational            0.889              2.981             35.924
 Rotational               0.592              1.987              9.861
 Vibrational              3.515              0.002              0.000

 Optimization completed.
    -- Stationary point found.
 Normal termination of Gaussian 16 at Thu Jun 20 17:20:44 2019.
