 Gaussian 16, Revision A.03,
 Gaussian 16:  ES64L-G16RevA.03 25-Dec-2016

 ----------------------------------------------------------------------
 #p opt ub3lyp/6-31g(d,p) scrf=(iefpcm,solvent=acetonitrile) guess=(mix
 ,always) empiricaldispersion=gd3
 ----------------------------------------------------------------------

 -------------------
 Title Card Required
 -------------------
 Symbolic Z-matrix:
 Charge =  0 Multiplicity = 1

 SCF Done:  E(UB3LYP) =  -881.659001643     A.U. after   24 cycles
 SCF Done:  E(UB3LYP) =  -881.646373790     A.U. after   24 cycles
 SCF Done:  E(UB3LYP) =  -881.660777695     A.U. after   26 cycles
 SCF Done:  E(UB3LYP) =  -881.662203329     A.U. after   24 cycles
 SCF Done:  E(UB3LYP) =  -881.634944885     A.U. after   31 cycles
 SCF Done:  E(UB3LYP) =  -881.663680963     A.U. after   24 cycles
 SCF Done:  E(UB3LYP) =  -881.663923597     A.U. after   24 cycles
 SCF Done:  E(UB3LYP) =  -881.665222756     A.U. after   24 cycles
 SCF Done:  E(UB3LYP) =  -881.666869405     A.U. after   23 cycles
 SCF Done:  E(UB3LYP) =  -881.669561743     A.U. after   24 cycles
 SCF Done:  E(UB3LYP) =  -881.694203528     A.U. after   18 cycles
 SCF Done:  E(UB3LYP) =  -881.694205210     A.U. after   18 cycles
 SCF Done:  E(UB3LYP) =  -881.694207026     A.U. after   18 cycles
 SCF Done:  E(UB3LYP) =  -881.694208517     A.U. after   18 cycles
 SCF Done:  E(UB3LYP) =  -881.694211175     A.U. after   18 cycles
 SCF Done:  E(UB3LYP) =  -881.694211846     A.U. after   18 cycles
 SCF Done:  E(UB3LYP) =  -881.694212409     A.U. after   18 cycles
 SCF Done:  E(UB3LYP) =  -881.694212708     A.U. after   18 cycles
 SCF Done:  E(UB3LYP) =  -881.694212740     A.U. after   18 cycles
 SCF Done:  E(UB3LYP) =  -881.694212880     A.U. after   18 cycles
 Optimization completed.
    -- Stationary point found.

                         Standard orientation:
 ---------------------------------------------------------------------
 Center     Atomic      Atomic             Coordinates (Angstroms)
 Number     Number       Type             X           Y           Z
 ---------------------------------------------------------------------
      1          6           0       -0.768119    1.596034   -0.675010
      2          1           0       -4.099358    0.655577    1.182403
      3          6           0       -1.334172   -1.534603    0.758779
      4          8           0       -2.235524   -1.914586    0.005291
      5          8           0       -1.617462    2.088500    0.264513
      6          7           0       -4.367592   -0.015684   -0.578351
      7          1           0       -4.219560    0.189003   -1.559733
      8          7           0       -4.100043    1.029248    0.228428
      9          1           0       -2.564012    1.822303    0.086952
     10          1           0       -4.024465   -0.936314   -0.296165
     11          6           0       -1.370260    0.984731   -1.902446
     12          1           0       -0.662465    0.944861   -2.731267
     13          1           0       -1.717751   -0.040348   -1.712880
     14          1           0       -2.233371    1.573979   -2.234018
     15          6           0       -1.668096   -0.789277    2.031339
     16          1           0       -1.076415   -1.137373    2.880989
     17          1           0       -1.461417    0.277672    1.885151
     18          1           0       -2.727923   -0.921569    2.253138
     19          6           0        0.619071    1.671773   -0.381926
     20          6           0        1.068644    2.205436    0.864299
     21          6           0        1.620656    1.218312   -1.289941
     22          6           0        2.420746    2.281746    1.166380
     23          1           0        0.331789    2.552763    1.579186
     24          6           0        2.967795    1.305925   -0.973498
     25          1           0        1.333417    0.778414   -2.238382
     26          6           0        3.388514    1.838615    0.253654
     27          1           0        2.729327    2.690994    2.125116
     28          1           0        3.704138    0.943956   -1.686006
     29          1           0        4.445115    1.900266    0.495197
     30          6           0        0.091102   -1.786322    0.410470
     31          6           0        0.378613   -2.518304   -0.754849
     32          6           0        1.151910   -1.314127    1.200956
     33          6           0        1.695932   -2.784078   -1.114064
     34          1           0       -0.447247   -2.872935   -1.361708
     35          6           0        2.470397   -1.578890    0.837860
     36          1           0        0.957670   -0.718578    2.084664
     37          6           0        2.744738   -2.317410   -0.314552
     38          1           0        1.908736   -3.353182   -2.013942
     39          1           0        3.282659   -1.191987    1.443525
     40          1           0        3.773644   -2.521127   -0.595901
 ---------------------------------------------------------------------

 The electronic state is 1-A.
 Alpha  occ. eigenvalues --  -19.16060 -19.14734 -14.38817 -14.36007 -10.28464
 Alpha  occ. eigenvalues --  -10.23235 -10.20048 -10.19869 -10.19852 -10.19656
 Alpha  occ. eigenvalues --  -10.19471 -10.19341 -10.18891 -10.18627 -10.18481
 Alpha  occ. eigenvalues --  -10.18197 -10.18129 -10.17775 -10.17550 -10.17513
 Alpha  occ. eigenvalues --   -1.04247  -1.03661  -0.99307  -0.85973  -0.84031
 Alpha  occ. eigenvalues --   -0.77383  -0.76555  -0.75038  -0.74416  -0.73346
 Alpha  occ. eigenvalues --   -0.73006  -0.71772  -0.63387  -0.63031  -0.60622
 Alpha  occ. eigenvalues --   -0.59073  -0.56444  -0.55816  -0.54608  -0.51215
 Alpha  occ. eigenvalues --   -0.50969  -0.48944  -0.47833  -0.46549  -0.46207
 Alpha  occ. eigenvalues --   -0.45249  -0.45115  -0.44473  -0.43786  -0.42481
 Alpha  occ. eigenvalues --   -0.42253  -0.42032  -0.41596  -0.40968  -0.40259
 Alpha  occ. eigenvalues --   -0.39056  -0.37992  -0.37754  -0.36885  -0.35767
 Alpha  occ. eigenvalues --   -0.35281  -0.34463  -0.34431  -0.33980  -0.32976
 Alpha  occ. eigenvalues --   -0.32040  -0.30771  -0.26264  -0.26156  -0.25516
 Alpha  occ. eigenvalues --   -0.24225  -0.23684  -0.20084
 Alpha virt. eigenvalues --   -0.06562  -0.04732  -0.00511   0.01229   0.03859
 Alpha virt. eigenvalues --    0.05965   0.06948   0.09328   0.09928   0.10622
 Alpha virt. eigenvalues --    0.12842   0.13068   0.14493   0.14902   0.15783

  Beta  occ. eigenvalues --  -19.16300 -19.14741 -14.38056 -14.34668 -10.28474
  Beta  occ. eigenvalues --  -10.24131 -10.20045 -10.19877 -10.19862 -10.19660
  Beta  occ. eigenvalues --  -10.19468 -10.19338 -10.18713 -10.18625 -10.18416
  Beta  occ. eigenvalues --  -10.18071 -10.18061 -10.17980 -10.17833 -10.17823
  Beta  occ. eigenvalues --   -1.04342  -1.04209  -0.97209  -0.85984  -0.84358
  Beta  occ. eigenvalues --   -0.77427  -0.77243  -0.75044  -0.73639  -0.73063
  Beta  occ. eigenvalues --   -0.72136  -0.71632  -0.64238  -0.63055  -0.60627
  Beta  occ. eigenvalues --   -0.59237  -0.56631  -0.55564  -0.54095  -0.51248
  Beta  occ. eigenvalues --   -0.51044  -0.49247  -0.47135  -0.46537  -0.46208
  Beta  occ. eigenvalues --   -0.45660  -0.45481  -0.44468  -0.43728  -0.42723
  Beta  occ. eigenvalues --   -0.42485  -0.42126  -0.42049  -0.41053  -0.39087
  Beta  occ. eigenvalues --   -0.38441  -0.38219  -0.37649  -0.36284  -0.35770
  Beta  occ. eigenvalues --   -0.34787  -0.34519  -0.34457  -0.34220  -0.33143
  Beta  occ. eigenvalues --   -0.31897  -0.28988  -0.26635  -0.26152  -0.25559
  Beta  occ. eigenvalues --   -0.25270  -0.24505  -0.14036
  Beta virt. eigenvalues --   -0.06484  -0.05599  -0.00539   0.00596   0.03375
  Beta virt. eigenvalues --    0.03976   0.07190   0.09507   0.09978   0.10678
  Beta virt. eigenvalues --    0.12878   0.13063   0.14461   0.15009   0.15784

 Mulliken charges and spin densities:
               1          2
     1  C    0.245516  -0.580608
     2  H    0.270640  -0.022263
     3  C    0.407106  -0.006900
     4  O   -0.519646  -0.004150
     5  O   -0.573276  -0.072456
     6  N   -0.386029   0.329980
     7  H    0.300542  -0.008572
     8  N   -0.451496   0.665895
     9  H    0.360827   0.004193
    10  H    0.306148   0.001950
    11  C   -0.401918   0.052632
    12  H    0.128213  -0.005881
    13  H    0.137456  -0.036336
    14  H    0.123500  -0.017617
    15  C   -0.418591   0.000795
    16  H    0.139926   0.000942
    17  H    0.165095  -0.002605
    18  H    0.127619   0.000065
    19  C    0.100413   0.147282
    20  C   -0.142671  -0.222492
    21  C   -0.141879  -0.218590
    22  C   -0.102004   0.117201
    23  H    0.092037   0.009940
    24  C   -0.099508   0.115140
    25  H    0.084332   0.009692
    26  C   -0.115288  -0.251012
    27  H    0.088219  -0.004208
    28  H    0.087543  -0.004050
    29  H    0.085676   0.011811
    30  C    0.054671   0.002649
    31  C   -0.110547  -0.004447
    32  C   -0.108871  -0.007665
    33  C   -0.102291   0.003182
    34  H    0.109123   0.000173
    35  C   -0.084568   0.003584
    36  H    0.108187   0.000086
    37  C   -0.084588  -0.007203
    38  H    0.106939  -0.000117
    39  H    0.105080  -0.000360
    40  H    0.108363   0.000343
 Sum of Mulliken charges =  -0.00000   0.00000

 Dipole moment (field-independent basis, Debye):
    X=              0.8048    Y=             -3.2817    Z=             -0.0481  Tot=              3.3793
 Quadrupole moment (field-independent basis, Debye-Ang):
   XX=           -112.5828   YY=           -130.5047   ZZ=           -104.4771
   XY=             -0.4577   XZ=              1.2293   YZ=              1.9571

 1\1\GINC-BLG9146\FOpt\UB3LYP\6-31G(d,p)\C16H20N2O2\RZK\11-Jun-2019\0\\
 #p opt ub3lyp/6-31g(d,p) scrf=(iefpcm,solvent=acetonitrile) guess=(mix
 ,always) empiricaldispersion=gd3\\Title Card Required\\0,1\C,0.9546276
 245,-1.4418812732,-0.7432650343\H,4.1133191878,-0.2025688916,1.2362208
 221\C,1.0995718909,1.644566484,0.8784285689\O,1.9562441622,2.178601078
 ,0.1674543157\O,1.8459840911,-1.8786678916,0.1848029753\N,4.3195193267
 ,0.6001547192,-0.4772292693\H,4.2125650877,0.4370062845,-1.4716457005\
 N,4.1748611772,-0.5160296206,0.2627464854\H,2.7536805874,-1.4857623688

 Normal termination of Gaussian 16 at Tue Jun 11 17:22:26 2019.
