 Gaussian 16, Revision B.01,
 Gaussian 16:  ES64L-G16RevB.01 20-Dec-2017

 ----------------------------------------------------------------------
 #p td=(nstates=24) ub3lyp/6-31g(d,p) scrf=(iefpcm,solvent=acetonitrile
 ) guess=(core,mix) empiricaldispersion=gd3
 ----------------------------------------------------------------------

 -------------------
 Title Card Required
 -------------------
 Symbolic Z-matrix:
 Charge =  0 Multiplicity = 1

                         Standard orientation:
 ---------------------------------------------------------------------
 Center     Atomic      Atomic             Coordinates (Angstroms)
 Number     Number       Type             X           Y           Z
 ---------------------------------------------------------------------
      1          6           0        0.568326    0.210816   -0.404695
      2          1           0        4.902740   -0.957863   -0.402000
      3          8           0        1.259404   -0.785877   -0.613115
      4          7           0        3.818887   -0.333442    1.145330
      5          1           0        3.500957    0.593234    1.422347
      6          7           0        4.218046   -0.221155   -0.245149
      7          1           0        3.413694   -0.450090   -0.831653
      8          1           0        2.989393   -0.926021    1.209005
      9          6           0        1.188036    1.592164   -0.386071
     10          1           0        0.715121    2.235994   -1.134627
     11          1           0        1.036166    2.065539    0.589738
     12          1           0        2.255536    1.520265   -0.592445
     13          6           0       -0.898822    0.071220   -0.161174
     14          6           0       -1.461944   -1.216508   -0.176239
     15          6           0       -1.727815    1.178365    0.083471
     16          6           0       -2.823394   -1.394418    0.047758
     17          1           0       -0.812423   -2.064189   -0.365400
     18          6           0       -3.092445    0.998613    0.308223
     19          1           0       -1.316817    2.181601    0.100673
     20          6           0       -3.641595   -0.285698    0.290616
     21          1           0       -3.249722   -2.392727    0.034242
     22          1           0       -3.726118    1.859493    0.496723
     23          1           0       -4.704364   -0.423359    0.465721
 ---------------------------------------------------------------------

 SCF Done:  E(UB3LYP) =  -496.812913388     A.U. after   24 cycles

 Excitation energies and oscillator strengths:

 Excited State   1:  3.000-A      3.3175 eV  373.72 nm  f=0.0000  <S**2>=2.000
     37A -> 42A        0.42737
     38A -> 42A       -0.26522
     38A -> 43A       -0.11186
     39A -> 42A        0.34463
     39A -> 43A       -0.22830
     40A -> 42A       -0.18908
     37B -> 42B       -0.42737
     38B -> 42B        0.26522
     38B -> 43B        0.11186
     39B -> 42B       -0.34463
     39B -> 43B        0.22830
     40B -> 42B        0.18908
 This state for optimization and/or second-order correction.
 Total Energy, E(TD-HF/TD-DFT) =  -496.690996250
 Copying the excited state density for this state as the 1-particle RhoCI density.

 Excited State   2:  3.000-A      3.3862 eV  366.14 nm  f=0.0000  <S**2>=2.000
     37A -> 42A        0.34856
     38A -> 42A        0.50059
     38A -> 44A       -0.10136
     39A -> 42A       -0.14943
     40A -> 42A       -0.25647
     41A -> 42A        0.11774
     37B -> 42B       -0.34856
     38B -> 42B       -0.50059
     38B -> 44B        0.10136
     39B -> 42B        0.14943
     40B -> 42B        0.25647
     41B -> 42B       -0.11774

 Excited State   3:  1.000-A      3.8702 eV  320.36 nm  f=0.0001  <S**2>=0.000
     37A -> 42A        0.36120
     38A -> 42A        0.45381
     39A -> 42A       -0.11684
     40A -> 42A       -0.31874
     41A -> 42A        0.18661
     37B -> 42B        0.36120
     38B -> 42B        0.45381
     39B -> 42B       -0.11684
     40B -> 42B       -0.31874
     41B -> 42B        0.18661

 Excited State   4:  3.000-A      3.9180 eV  316.45 nm  f=0.0000  <S**2>=2.000
     37A -> 42A       -0.23824
     38A -> 42A        0.32614
     39A -> 42A        0.56282
     37B -> 42B        0.23824
     38B -> 42B       -0.32614
     39B -> 42B       -0.56282

 Excited State   5:  3.000-A      4.1662 eV  297.60 nm  f=0.0000  <S**2>=2.000
     41A -> 42A        0.68986
     41B -> 42B       -0.68985

 Excited State   6:  1.000-A      4.1769 eV  296.83 nm  f=0.0033  <S**2>=0.000
     38A -> 42A       -0.12378
     40A -> 42A        0.10940
     41A -> 42A        0.68013
     38B -> 42B       -0.12378
     40B -> 42B        0.10940
     41B -> 42B        0.68014

 Excited State   7:  3.000-A      4.4152 eV  280.81 nm  f=0.0000  <S**2>=2.000
     37A -> 43A        0.12451
     38A -> 42A        0.20149
     38A -> 43A       -0.19533
     39A -> 43A       -0.41827
     40A -> 42A        0.45238
     37B -> 43B       -0.12451
     38B -> 42B       -0.20149
     38B -> 43B        0.19532
     39B -> 43B        0.41827
     40B -> 42B       -0.45238

 Excited State   8:  1.000-A      4.4849 eV  276.45 nm  f=0.0142  <S**2>=0.000
     37A -> 42A        0.25321
     38A -> 42A        0.22774
     40A -> 42A        0.61638
     37B -> 42B        0.25321
     38B -> 42B        0.22774
     40B -> 42B        0.61638

 Excited State   9:  3.000-A      4.4961 eV  275.76 nm  f=0.0000  <S**2>=2.000
     37A -> 42A       -0.34075
     37A -> 43A        0.11465
     38A -> 43A       -0.17885
     39A -> 42A       -0.13684
     39A -> 43A       -0.37401
     40A -> 42A       -0.42206
     37B -> 42B        0.34075
     37B -> 43B       -0.11465
     38B -> 43B        0.17884
     39B -> 42B        0.13684
     39B -> 43B        0.37401
     40B -> 42B        0.42206

 Excited State  10:  1.000-A      4.6631 eV  265.88 nm  f=0.0253  <S**2>=0.000
     37A -> 42A       -0.16545
     37A -> 43A        0.15111
     38A -> 42A        0.28051
     38A -> 43A       -0.11678
     39A -> 42A        0.58487
     39A -> 43A        0.11037
     37B -> 42B       -0.16545
     37B -> 43B        0.15111
     38B -> 42B        0.28051
     38B -> 43B       -0.11678
     39B -> 42B        0.58487
     39B -> 43B        0.11037

 Excited State  11:  1.000-A      5.1039 eV  242.92 nm  f=0.3319  <S**2>=0.000
     37A -> 42A        0.49870
     38A -> 42A       -0.34994
     39A -> 42A        0.32048
     39A -> 43A       -0.11696
     37B -> 42B        0.49870
     38B -> 42B       -0.34994
     39B -> 42B        0.32048
     39B -> 43B       -0.11696

 Excited State  12:  3.000-A      5.1648 eV  240.06 nm  f=0.0000  <S**2>=2.000
     37A -> 43A       -0.46698
     38A -> 43A        0.36862
     39A -> 43A       -0.30522
     40A -> 43A        0.16963
     37B -> 43B        0.46698
     38B -> 43B       -0.36862
     39B -> 43B        0.30522
     40B -> 43B       -0.16963

 Excited State  13:  3.000-A      5.4328 eV  228.22 nm  f=0.0000  <S**2>=2.000
     28A -> 42A        0.13897
     33A -> 42A       -0.12945
     35A -> 42A        0.55906
     35A -> 44A       -0.12018
     37A -> 44A        0.19742
     38A -> 44A       -0.14723
     39A -> 44A        0.18129
     28B -> 42B       -0.13897
     33B -> 42B        0.12945
     35B -> 42B       -0.55906
     35B -> 44B        0.12018
     37B -> 44B       -0.19742
     38B -> 44B        0.14723
     39B -> 44B       -0.18129

 Excited State  14:  3.000-A      5.7745 eV  214.71 nm  f=0.0000  <S**2>=2.000
     37A -> 43A       -0.13641
     40A -> 43A        0.12903
     41A -> 43A       -0.67474
     37B -> 43B        0.13641
     40B -> 43B       -0.12903
     41B -> 43B        0.67480

 Excited State  15:  1.000-A      5.7754 eV  214.68 nm  f=0.0004  <S**2>=0.000
     41A -> 43A        0.69080
     41B -> 43B        0.69075

 Excited State  16:  3.000-A      5.9034 eV  210.02 nm  f=0.0000  <S**2>=2.000
     37A -> 43A       -0.21615
     38A -> 43A       -0.40441
     39A -> 43A        0.14955
     40A -> 43A        0.47526
     41A -> 43A        0.19289
     37B -> 43B        0.21615
     38B -> 43B        0.40441
     39B -> 43B       -0.14955
     40B -> 43B       -0.47526
     41B -> 43B       -0.19288

 Excited State  17:  1.000-A      5.9172 eV  209.53 nm  f=0.0015  <S**2>=0.000
     37A -> 43A       -0.25898
     38A -> 43A       -0.33756
     39A -> 43A        0.10022
     40A -> 43A        0.53495
     41A -> 43A        0.14169
     37B -> 43B       -0.25898
     38B -> 43B       -0.33756
     39B -> 43B        0.10022
     40B -> 43B        0.53495
     41B -> 43B        0.14170

 Excited State  18:  1.000-A      6.1482 eV  201.66 nm  f=0.0101  <S**2>=0.000
     37A -> 43A        0.28301
     38A -> 43A        0.44098
     39A -> 43A       -0.11851
     40A -> 43A        0.44423
     37B -> 43B        0.28301
     38B -> 43B        0.44098
     39B -> 43B       -0.11850
     40B -> 43B        0.44423

 Excited State  19:  3.000-A      6.1536 eV  201.48 nm  f=0.0000  <S**2>=2.000
     37A -> 43A       -0.41058
     38A -> 43A       -0.31377
     40A -> 43A       -0.47596
     37B -> 43B        0.41058
     38B -> 43B        0.31377
     40B -> 43B        0.47596

 Excited State  20:  1.000-A      6.3079 eV  196.55 nm  f=0.0950  <S**2>=0.000
     37A -> 43A        0.48391
     38A -> 43A       -0.21774
     38A -> 44A        0.13352
     39A -> 42A       -0.15148
     39A -> 43A        0.28586
     39A -> 44A        0.26071
     37B -> 43B        0.48391
     38B -> 43B       -0.21774
     38B -> 44B        0.13352
     39B -> 42B       -0.15148
     39B -> 43B        0.28586
     39B -> 44B        0.26071

 Excited State  21:  3.000-A      6.3844 eV  194.20 nm  f=0.0000  <S**2>=2.000
     36A -> 42A        0.68946
     36B -> 42B       -0.68946

 Excited State  22:  3.000-A      6.4753 eV  191.47 nm  f=0.0000  <S**2>=2.000
     33A -> 42A        0.30920
     35A -> 42A       -0.18561
     35A -> 44A        0.12836
     37A -> 44A        0.35538
     38A -> 44A       -0.23900
     39A -> 44A        0.33788
     40A -> 44A       -0.12444
     33B -> 42B       -0.30920
     35B -> 42B        0.18561
     35B -> 44B       -0.12836
     37B -> 44B       -0.35538
     38B -> 44B        0.23900
     39B -> 44B       -0.33788
     40B -> 44B        0.12444

 Excited State  23:  3.000-A      6.5004 eV  190.73 nm  f=0.0000  <S**2>=2.000
     34A -> 42A        0.50582
     37A -> 44A       -0.23539
     38A -> 44A       -0.31842
     40A -> 44A        0.19429
     41A -> 44A       -0.10101
     34B -> 42B       -0.50582
     37B -> 44B        0.23539
     38B -> 44B        0.31842
     40B -> 44B       -0.19429
     41B -> 44B        0.10101

 Excited State  24:  1.000-A      6.5585 eV  189.04 nm  f=0.0000  <S**2>=0.000
     36A -> 42A        0.69679
     36B -> 42B        0.69679

 The electronic state is 1-A.
 Alpha  occ. eigenvalues --  -19.14946 -14.33095 -14.32720 -10.28763 -10.20568
 Alpha  occ. eigenvalues --  -10.20506 -10.20373 -10.20097 -10.19969 -10.19908
 Alpha  occ. eigenvalues --  -10.18881  -1.04553  -0.93098  -0.86455  -0.77728
 Alpha  occ. eigenvalues --   -0.75523  -0.73607  -0.73296  -0.63354  -0.61080
 Alpha  occ. eigenvalues --   -0.55633  -0.51538  -0.48697  -0.47182  -0.46740
 Alpha  occ. eigenvalues --   -0.46321  -0.44714  -0.44581  -0.43271  -0.42893
 Alpha  occ. eigenvalues --   -0.42105  -0.39123  -0.38152  -0.36161  -0.35842
 Alpha  occ. eigenvalues --   -0.34873  -0.26471  -0.26354  -0.26142  -0.24972
 Alpha  occ. eigenvalues --   -0.23988
 Alpha virt. eigenvalues --   -0.06357  -0.01094   0.03471   0.08210   0.10125
 Alpha virt. eigenvalues --    0.11396   0.13024   0.14646   0.15144   0.15783
 Alpha virt. eigenvalues --    0.16625   0.17695   0.18117   0.19043   0.19241

  Beta  occ. eigenvalues --  -19.14946 -14.33095 -14.32720 -10.28763 -10.20568
  Beta  occ. eigenvalues --  -10.20506 -10.20373 -10.20097 -10.19969 -10.19908
  Beta  occ. eigenvalues --  -10.18881  -1.04553  -0.93098  -0.86455  -0.77728
  Beta  occ. eigenvalues --   -0.75523  -0.73607  -0.73296  -0.63354  -0.61080
  Beta  occ. eigenvalues --   -0.55633  -0.51538  -0.48697  -0.47182  -0.46740
  Beta  occ. eigenvalues --   -0.46321  -0.44714  -0.44581  -0.43271  -0.42893
  Beta  occ. eigenvalues --   -0.42105  -0.39123  -0.38152  -0.36161  -0.35842
  Beta  occ. eigenvalues --   -0.34873  -0.26471  -0.26354  -0.26142  -0.24972
  Beta  occ. eigenvalues --   -0.23988
  Beta virt. eigenvalues --   -0.06357  -0.01094   0.03471   0.08210   0.10125
  Beta virt. eigenvalues --    0.11396   0.13024   0.14646   0.15144   0.15783
  Beta virt. eigenvalues --    0.16625   0.17695   0.18117   0.19043   0.19241

 Mulliken charges and spin densities:
               1          2
     1  C    0.404531   0.000000
     2  H    0.259569  -0.000000
     3  O   -0.501811  -0.000000
     4  N   -0.531496  -0.000000
     5  H    0.261860   0.000000
     6  N   -0.537097   0.000000
     7  H    0.260410   0.000000
     8  H    0.253593  -0.000000
     9  C   -0.413346  -0.000000
    10  H    0.150353   0.000000
    11  H    0.151902  -0.000000
    12  H    0.139925   0.000000
    13  C    0.051393  -0.000000
    14  C   -0.106304   0.000000
    15  C   -0.125323   0.000000
    16  C   -0.099164  -0.000000
    17  H    0.114045  -0.000000
    18  C   -0.103591  -0.000000
    19  H    0.114660  -0.000000
    20  C   -0.084358   0.000000
    21  H    0.112363   0.000000
    22  H    0.113246   0.000000
    23  H    0.114639  -0.000000
 Sum of Mulliken charges =  -0.00000   0.00000

 Dipole moment (field-independent basis, Debye):
    X=             -5.6814    Y=              1.6261    Z=             -0.0316  Tot=              5.9096
 Quadrupole moment (field-independent basis, Debye-Ang):
   XX=            -76.1353   YY=            -58.0862   ZZ=            -68.2986
   XY=             -0.7793   XZ=             -5.1594   YZ=              1.4950

 Normal termination of Gaussian 16 at Sat May 11 01:08:00 2019.
