 Gaussian 16, Revision B.01,
 Gaussian 16:  ES64L-G16RevB.01 20-Dec-2017

 ----------------------------------------------------------------------
 #p opt freq ub3lyp/6-31g(d,p) scrf=(iefpcm,solvent=acetonitrile) empir
 icaldispersion=gd3
 ----------------------------------------------------------------------

 -------------------
 Title Card Required
 -------------------
 Symbolic Z-matrix:
 Charge =  0 Multiplicity = 3

 SCF Done:  E(UB3LYP) =  -496.697644971     A.U. after   17 cycles
 SCF Done:  E(UB3LYP) =  -496.722470335     A.U. after   15 cycles
 SCF Done:  E(UB3LYP) =  -496.730430354     A.U. after   15 cycles
 SCF Done:  E(UB3LYP) =  -496.732307700     A.U. after   14 cycles
 SCF Done:  E(UB3LYP) =  -496.734502087     A.U. after   14 cycles
 SCF Done:  E(UB3LYP) =  -496.735249183     A.U. after   13 cycles
 SCF Done:  E(UB3LYP) =  -496.736204345     A.U. after   14 cycles
 SCF Done:  E(UB3LYP) =  -496.737185314     A.U. after   12 cycles
 SCF Done:  E(UB3LYP) =  -496.738746779     A.U. after   16 cycles
 SCF Done:  E(UB3LYP) =  -496.740113094     A.U. after   14 cycles
 SCF Done:  E(UB3LYP) =  -496.750356358     A.U. after    9 cycles
 SCF Done:  E(UB3LYP) =  -496.750385865     A.U. after   12 cycles
 SCF Done:  E(UB3LYP) =  -496.750398358     A.U. after   10 cycles
 SCF Done:  E(UB3LYP) =  -496.750407260     A.U. after   10 cycles
 SCF Done:  E(UB3LYP) =  -496.750408753     A.U. after    9 cycles
 SCF Done:  E(UB3LYP) =  -496.750410001     A.U. after    8 cycles
 SCF Done:  E(UB3LYP) =  -496.750412409     A.U. after   11 cycles
 SCF Done:  E(UB3LYP) =  -496.750412699     A.U. after    8 cycles
 SCF Done:  E(UB3LYP) =  -496.750412972     A.U. after    8 cycles
 Optimization completed.
    -- Stationary point found.
 Normal termination of Gaussian 16 at Fri May 17 16:24:53 2019.

 ----------------------------------------------------------------------
 #P Geom=AllCheck Guess=TCheck SCRF=Check GenChk UB3LYP/6-31G(d,p) Freq
 ----------------------------------------------------------------------

 Structure from the checkpoint file:  "AH-BnoH-opt.chk"
 -------------------
 Title Card Required
 -------------------
 Charge =  0 Multiplicity = 3

                         Standard orientation:
 ---------------------------------------------------------------------
 Center     Atomic      Atomic             Coordinates (Angstroms)
 Number     Number       Type             X           Y           Z
 ---------------------------------------------------------------------
      1          6           0        0.743677    1.469229    0.194893
      2          8           0        1.941807    1.035436    0.655941
      3          6           0        0.756272    2.900702   -0.245017
      4          1           0        1.082295    3.006153   -1.290565
      5          1           0       -0.223232    3.375785   -0.151714
      6          1           0        1.471465    3.457999    0.368668
      7          6           0       -0.397021    0.623034    0.163900
      8          6           0       -0.411014   -0.632826    0.849179
      9          6           0       -1.585487    0.982877   -0.543262
     10          6           0       -1.519741   -1.468006    0.801162
     11          1           0        0.450555   -0.918795    1.443080
     12          6           0       -2.684498    0.136888   -0.578882
     13          1           0       -1.623038    1.922296   -1.084903
     14          6           0       -2.668041   -1.100480    0.083470
     15          1           0       -1.497827   -2.411016    1.341399
     16          1           0       -3.567577    0.437902   -1.136476
     17          1           0       -3.530692   -1.758034    0.047418
     18          1           0        2.107365    0.070269    0.423615
     19          7           0        1.741112   -2.224614   -0.904934
     20          1           0        2.012796   -3.170885   -1.152816
     21          1           0        0.756435   -2.090669   -0.696105
     22          7           0        2.560137   -1.469482   -0.155904
     23          1           0        3.513370   -1.814333   -0.285927
 ---------------------------------------------------------------------

 SCF Done:  E(UB3LYP) =  -496.750412972     A.U. after    1 cycles

 The electronic state is 3-A.
 Alpha  occ. eigenvalues --  -19.14966 -14.39318 -14.36325 -10.23812 -10.19115
 Alpha  occ. eigenvalues --  -10.18665 -10.18504 -10.18445 -10.18396 -10.18196
 Alpha  occ. eigenvalues --  -10.17898  -1.03274  -0.99662  -0.84742  -0.77217
 Alpha  occ. eigenvalues --   -0.74886  -0.74069  -0.72125  -0.63260  -0.59520
 Alpha  occ. eigenvalues --   -0.57397  -0.55969  -0.53055  -0.48885  -0.48007
 Alpha  occ. eigenvalues --   -0.45251  -0.43729  -0.43364  -0.41678  -0.40702
 Alpha  occ. eigenvalues --   -0.40228  -0.38607  -0.37640  -0.36289  -0.35098
 Alpha  occ. eigenvalues --   -0.33158  -0.32842  -0.30026  -0.26228  -0.25515
 Alpha  occ. eigenvalues --   -0.19912  -0.14127
 Alpha virt. eigenvalues --   -0.00061   0.02785   0.08054   0.09947   0.11469
 Alpha virt. eigenvalues --    0.12593   0.14530   0.14750   0.16034   0.17232
 Alpha virt. eigenvalues --    0.17610   0.18417   0.19428   0.20820   0.23311

  Beta  occ. eigenvalues --  -19.14642 -14.38540 -14.34908 -10.22918 -10.19277
  Beta  occ. eigenvalues --  -10.18805 -10.18621 -10.18177 -10.18115 -10.17959
  Beta  occ. eigenvalues --  -10.17857  -1.02398  -0.97464  -0.84400  -0.76411
  Beta  occ. eigenvalues --   -0.73822  -0.72107  -0.71644  -0.62313  -0.59345
  Beta  occ. eigenvalues --   -0.56860  -0.55246  -0.52768  -0.47888  -0.47385
  Beta  occ. eigenvalues --   -0.44973  -0.43434  -0.41939  -0.41484  -0.40247
  Beta  occ. eigenvalues --   -0.38303  -0.37080  -0.35526  -0.34481  -0.33908
  Beta  occ. eigenvalues --   -0.32838  -0.31108  -0.28910  -0.24729  -0.24613
  Beta virt. eigenvalues --   -0.05631  -0.04625   0.00548   0.05396   0.08627
  Beta virt. eigenvalues --    0.10142   0.12225   0.12788   0.14849   0.15010
  Beta virt. eigenvalues --    0.16590   0.17549   0.17906   0.19154   0.19986

 Mulliken charges and spin densities:
               1          2
     1  C    0.237655   0.580348
     2  O   -0.590499   0.092897
     3  C   -0.369970  -0.049783
     4  H    0.125551   0.037558
     5  H    0.120260   0.005601
     6  H    0.122764   0.013087
     7  C    0.107226  -0.134073
     8  C   -0.191774   0.220276
     9  C   -0.153364   0.222867
    10  C   -0.102006  -0.119078
    11  H    0.096814  -0.009312
    12  C   -0.105482  -0.116923
    13  H    0.091062  -0.009843
    14  C   -0.117974   0.264379
    15  H    0.096456   0.004426
    16  H    0.093836   0.004126
    17  H    0.090729  -0.012404
    18  H    0.377543  -0.009373
    19  N   -0.376558   0.337879
    20  H    0.302697  -0.004095
    21  H    0.300709  -0.004701
    22  N   -0.430379   0.708894
    23  H    0.274702  -0.022753
 Sum of Mulliken charges =  -0.00000   2.00000

 Dipole moment (field-independent basis, Debye):
    X=              0.8964    Y=             -4.2842    Z=             -2.1313  Tot=              4.8683
 Quadrupole moment (field-independent basis, Debye-Ang):
   XX=            -60.2739   YY=            -49.8728   ZZ=            -67.8372
   XY=             -9.9626   XZ=             -2.0250   YZ=              0.0560

  Exact polarizability: 181.129  37.089 158.854  22.358 -17.213  83.209
 Approx polarizability: 211.866  44.893 179.504  31.319 -20.374 102.619

                      1                      2                      3
                      A                      A                      A
 Frequencies --     43.3570                60.5478                84.6389
 Red. masses --      3.8663                 3.3091                 1.2210
 Frc consts  --      0.0043                 0.0071                 0.0052
 IR Inten    --      6.0890                 8.4267                 0.2285

                      4                      5                      6
                      A                      A                      A
 Frequencies --     89.8029               120.6661               169.7962
 Red. masses --      4.3884                 3.1055                 3.9645
 Frc consts  --      0.0209                 0.0266                 0.0673
 IR Inten    --      2.6638                 0.3245                 3.0258

                      7                      8                      9
                      A                      A                      A
 Frequencies --    177.9064               194.7583               234.9086
 Red. masses --      1.5555                 2.2873                 3.4116
 Frc consts  --      0.0290                 0.0511                 0.1109
 IR Inten    --     47.9858                28.3448                17.0695

                     10                     11                     12
                      A                      A                      A
 Frequencies --    253.3583               357.9499               386.9423
 Red. masses --      3.3900                 3.7620                 4.3757
 Frc consts  --      0.1282                 0.2840                 0.3860
 IR Inten    --     50.7572                 1.1484                 9.4703

                     13                     14                     15
                      A                      A                      A
 Frequencies --    429.0517               479.5108               516.6074
 Red. masses --      3.1879                 4.4490                 3.3596
 Frc consts  --      0.3458                 0.6027                 0.5283
 IR Inten    --      0.4989                 7.2767                14.3790

                     16                     17                     18
                      A                      A                      A
 Frequencies --    553.8286               587.8099               626.8825
 Red. masses --      4.1639                 1.2650                 6.3823
 Frc consts  --      0.7525                 0.2575                 1.4777
 IR Inten    --      6.2797               126.9960                 0.1529

                     19                     20                     21
                      A                      A                      A
 Frequencies --    696.6057               713.7033               737.1419
 Red. masses --      1.8939                 1.1098                 4.8942
 Frc consts  --      0.5415                 0.3331                 1.5669
 IR Inten    --     51.1075               185.3876                18.1120

                     22                     23                     24
                      A                      A                      A
 Frequencies --    747.0886               832.7558               848.8788
 Red. masses --      1.7804                 1.2105                 1.1333
 Frc consts  --      0.5855                 0.4946                 0.4812
 IR Inten    --     61.1458                38.0236               105.7944

                     25                     26                     27
                      A                      A                      A
 Frequencies --    882.1365               970.6036               976.6993
 Red. masses --      1.3543                 1.4039                 2.7589
 Frc consts  --      0.6209                 0.7792                 1.5507
 IR Inten    --      6.2251                 4.3806                57.8955

                     28                     29                     30
                      A                      A                      A
 Frequencies --    985.0858               997.5912              1022.2585
 Red. masses --      1.2442                 2.8942                 1.4325
 Frc consts  --      0.7113                 1.6970                 0.8820
 IR Inten    --      1.3736                 3.5827                12.7488

                     31                     32                     33
                      A                      A                      A
 Frequencies --   1039.8554              1081.0546              1113.6724
 Red. masses --      2.3423                 2.1054                 1.6951
 Frc consts  --      1.4922                 1.4497                 1.2387
 IR Inten    --     21.6081                11.8372                22.4418

                     34                     35                     36
                      A                      A                      A
 Frequencies --   1164.6995              1183.5784              1213.1005
 Red. masses --      1.0727                 1.1271                 1.1940
 Frc consts  --      0.8573                 0.9302                 1.0353
 IR Inten    --     26.0818                 7.0616                14.6540

                     37                     38                     39
                      A                      A                      A
 Frequencies --   1268.6892              1318.6680              1335.9457
 Red. masses --      3.2217                 6.1827                 3.2174
 Frc consts  --      3.0553                 6.3343                 3.3832
 IR Inten    --    225.1973                 2.0472                77.4466

                     40                     41                     42
                      A                      A                      A
 Frequencies --   1364.5289              1407.2082              1428.7899
 Red. masses --      1.7358                 1.4124                 2.0598
 Frc consts  --      1.9042                 1.6479                 2.4774
 IR Inten    --      2.2007                 0.5275               167.2037

                     43                     44                     45
                      A                      A                      A
 Frequencies --   1467.4000              1480.2850              1482.6530
 Red. masses --      1.7129                 1.2399                 1.1251
 Frc consts  --      2.1731                 1.6007                 1.4572
 IR Inten    --     38.1547                29.6954                56.9328

                     46                     47                     48
                      A                      A                      A
 Frequencies --   1494.1390              1506.1749              1538.7536
 Red. masses --      1.2555                 1.5465                 2.2213
 Frc consts  --      1.6514                 2.0670                 3.0988
 IR Inten    --     17.8953                51.1248                31.2061

                     49                     50                     51
                      A                      A                      A
 Frequencies --   1578.3747              1617.9765              1657.1823
 Red. masses --      3.9205                 4.7985                 1.1146
 Frc consts  --      5.7546                 7.4012                 1.8035
 IR Inten    --      4.6761                42.6679                43.7864

                     52                     53                     54
                      A                      A                      A
 Frequencies --   3001.6379              3007.6780              3080.0678
 Red. masses --      1.0533                 1.0747                 1.0827
 Frc consts  --      5.5913                 5.7277                 6.0518
 IR Inten    --    131.3197              1894.5249                26.4718

                     55                     56                     57
                      A                      A                      A
 Frequencies --   3131.0825              3172.8207              3177.4150
 Red. masses --      1.1016                 1.0857                 1.0886
 Frc consts  --      6.3632                 6.4394                 6.4756
 IR Inten    --     21.3297                11.9926                23.9803

                     58                     59                     60
                      A                      A                      A
 Frequencies --   3199.0044              3203.9971              3209.2116
 Red. masses --      1.0907                 1.0922                 1.0960
 Frc consts  --      6.5764                 6.6058                 6.6504
 IR Inten    --     33.7096                36.9807                10.8709

                     61                     62                     63
                      A                      A                      A
 Frequencies --   3481.3131              3486.0946              3620.2955
 Red. masses --      1.0759                 1.0440                 1.1062
 Frc consts  --      7.6823                 7.4755                 8.5424
 IR Inten    --      0.1890                66.6041               141.1862

 - Thermochemistry -
 -------------------
 Temperature   298.150 Kelvin.  Pressure   1.00000 Atm.
 Atom     1 has atomic number  6 and mass  12.00000

 Molecular mass:   152.09496 amu.
 Principal axes and moments of inertia in atomic units:
                           1         2         3
     Eigenvalues --  1513.933881970.095663095.33724
           X            0.99990  -0.01427   0.00120
           Y            0.01429   0.99979  -0.01477
           Z           -0.00099   0.01479   0.99989
 This molecule is an asymmetric top.
 Rotational symmetry number  1.
 Warning -- assumption of classical behavior for rotation
           may cause significant error
 Rotational temperatures (Kelvin)      0.05721     0.04396     0.02798
 Rotational constants (GHZ):           1.19209     0.91607     0.58305
 Zero-point vibrational energy     498198.1 (Joules/Mol)
                                  119.07221 (Kcal/Mol)
 Warning -- explicit consideration of  17 degrees of freedom as
           vibrations may cause significant error
 Vibrational temperatures:     62.38    87.11   121.78   129.21   173.61
          (Kelvin)            244.30   255.97   280.21   337.98   364.53
                              515.01   556.72   617.31   689.91   743.28
                              796.84   845.73   901.94  1002.26  1026.86
                             1060.58  1074.89  1198.15  1221.35  1269.20
                             1396.48  1405.25  1417.32  1435.31  1470.80
                             1496.12  1555.40  1602.33  1675.74  1702.91
                             1745.38  1825.36  1897.27  1922.13  1963.25
                             2024.66  2055.71  2111.26  2129.80  2133.21
                             2149.73  2167.05  2213.92  2270.93  2327.91
                             2384.32  4318.69  4327.38  4431.53  4504.93
                             4564.98  4571.59  4602.65  4609.84  4617.34
                             5008.83  5015.71  5208.80

 Zero-point correction=                           0.189754 (Hartree/Particle)
 Thermal correction to Energy=                    0.202165
 Thermal correction to Enthalpy=                  0.203109
 Thermal correction to Gibbs Free Energy=         0.149529
 Sum of electronic and zero-point Energies=           -496.560659
 Sum of electronic and thermal Energies=              -496.548248
 Sum of electronic and thermal Enthalpies=            -496.547304
 Sum of electronic and thermal Free Energies=         -496.600884

                     E (Thermal)             CV                S
                      KCal/Mol        Cal/Mol-Kelvin    Cal/Mol-Kelvin
 Total                  126.860             44.723            112.768
 Electronic               0.000              0.000              2.183
 Translational            0.889              2.981             40.968
 Rotational               0.889              2.981             30.602
 Vibrational            125.083             38.762             39.015
 Vibration     1          0.595              1.980              5.099
 Vibration     2          0.597              1.973              4.439
 Vibration     3          0.601              1.960              3.780
 Vibration     4          0.602              1.956              3.664
 Vibration     5          0.609              1.932              3.090
 Vibration     6          0.625              1.880              2.438
 Vibration     7          0.628              1.870              2.350
 Vibration     8          0.635              1.847              2.182
 Vibration     9          0.655              1.787              1.841
 Vibration    10          0.665              1.757              1.707
 Vibration    11          0.733              1.559              1.131
 Vibration    12          0.755              1.498              1.012
 Vibration    13          0.790              1.407              0.862
 Vibration    14          0.836              1.295              0.711
 Vibration    15          0.872              1.213              0.618
 Vibration    16          0.909              1.131              0.536
 Vibration    17          0.945              1.058              0.471

                           ! Non-Optimized Parameters !
 Normal termination of Gaussian 16 at Fri May 17 16:27:02 2019.
