 Gaussian 16, Revision B.01,
 Gaussian 16:  ES64L-G16RevB.01 20-Dec-2017

 ----------------------------------------------------------------------
 #p opt=modredundant ub3lyp/6-31g(d,p) scrf=(iefpcm,solvent=acetonitril
 e) empiricaldispersion=gd3
 ----------------------------------------------------------------------

 -------------------
 Title Card Required
 -------------------
 Symbolic Z-matrix:
 Charge =  0 Multiplicity = 2

 SCF Done:  E(UB3LYP) =  -385.471125787     A.U. after   17 cycles
 SCF Done:  E(UB3LYP) =  -385.485278590     A.U. after   14 cycles
 SCF Done:  E(UB3LYP) =  -385.487190590     A.U. after   14 cycles
 SCF Done:  E(UB3LYP) =  -385.487316947     A.U. after   13 cycles
 SCF Done:  E(UB3LYP) =  -385.487353922     A.U. after   12 cycles
 SCF Done:  E(UB3LYP) =  -385.487360239     A.U. after   11 cycles
 SCF Done:  E(UB3LYP) =  -385.487364851     A.U. after   11 cycles
 SCF Done:  E(UB3LYP) =  -385.487370057     A.U. after   11 cycles
 SCF Done:  E(UB3LYP) =  -385.487379855     A.U. after    9 cycles
 SCF Done:  E(UB3LYP) =  -385.487391747     A.U. after   13 cycles
 SCF Done:  E(UB3LYP) =  -385.487695958     A.U. after   13 cycles
 SCF Done:  E(UB3LYP) =  -385.487389645     A.U. after   16 cycles
 SCF Done:  E(UB3LYP) =  -385.486753521     A.U. after   16 cycles
 SCF Done:  E(UB3LYP) =  -385.487414077     A.U. after   13 cycles
 SCF Done:  E(UB3LYP) =  -385.487766127     A.U. after   10 cycles
 SCF Done:  E(UB3LYP) =  -385.487821208     A.U. after   12 cycles
 SCF Done:  E(UB3LYP) =  -385.487833261     A.U. after    9 cycles
 SCF Done:  E(UB3LYP) =  -385.487834649     A.U. after   10 cycles
 SCF Done:  E(UB3LYP) =  -385.487834797     A.U. after    8 cycles
 SCF Done:  E(UB3LYP) =  -385.487834816     A.U. after    6 cycles
 Optimization completed.
    -- Stationary point found.

                         Standard orientation:
 ---------------------------------------------------------------------
 Center     Atomic      Atomic             Coordinates (Angstroms)
 Number     Number       Type             X           Y           Z
 ---------------------------------------------------------------------
      1          6           0       -1.600814   -0.048168   -0.000076
      2          6           0       -2.548595    1.106026   -0.000116
      3          1           0       -2.038368    2.068385   -0.001132
      4          1           0       -3.202229    1.074337   -0.883250
      5          1           0       -3.201004    1.075544    0.883988
      6          6           0       -0.185259   -0.000314   -0.000041
      7          6           0        0.583764   -1.206099   -0.000076
      8          6           0        0.540374    1.229751    0.000059
      9          6           0        1.970311   -1.171844   -0.000072
     10          1           0        0.066070   -2.158300   -0.000133
     11          6           0        1.927476    1.243687    0.000074
     12          1           0        0.007467    2.174369    0.000213
     13          6           0        2.662207    0.048435   -0.000001
     14          1           0        2.524701   -2.106804   -0.000124
     15          1           0        2.447658    2.197872    0.000193
     16          1           0        3.747485    0.068225    0.000008
     17          8           0       -2.165002   -1.298031    0.000225
     18          1           0       -3.128551   -1.218221   -0.000067
 ---------------------------------------------------------------------

 The electronic state is 2-A.
 Alpha  occ. eigenvalues --  -19.18297 -10.24820 -10.19394 -10.19060 -10.18602
 Alpha  occ. eigenvalues --  -10.18391 -10.18368 -10.18227 -10.18180  -1.06179
 Alpha  occ. eigenvalues --   -0.84842  -0.77932  -0.74053  -0.72626  -0.65062
 Alpha  occ. eigenvalues --   -0.59693  -0.57218  -0.51534  -0.49903  -0.46169
 Alpha  occ. eigenvalues --   -0.44515  -0.44175  -0.42533  -0.41433  -0.38782
 Alpha  occ. eigenvalues --   -0.37753  -0.36412  -0.35546  -0.34692  -0.32660
 Alpha  occ. eigenvalues --   -0.26511  -0.25273  -0.14724
 Alpha virt. eigenvalues --    0.00258   0.03069   0.07308   0.10768   0.13017
 Alpha virt. eigenvalues --    0.13524   0.15710   0.15939   0.17684   0.18791
 Alpha virt. eigenvalues --    0.19643   0.21497   0.24215   0.25667   0.28113

  Beta  occ. eigenvalues --  -19.17980 -10.23882 -10.19589 -10.19127 -10.18545
  Beta  occ. eigenvalues --  -10.18512 -10.18294 -10.17927 -10.17839  -1.05368
  Beta  occ. eigenvalues --   -0.84478  -0.77085  -0.73743  -0.72318  -0.64099
  Beta  occ. eigenvalues --   -0.59492  -0.56925  -0.51312  -0.49244  -0.45778
  Beta  occ. eigenvalues --   -0.44086  -0.42752  -0.42359  -0.41337  -0.38588
  Beta  occ. eigenvalues --   -0.36519  -0.36136  -0.34436  -0.34142  -0.32543
  Beta  occ. eigenvalues --   -0.24964  -0.24359
  Beta virt. eigenvalues --   -0.05688   0.00954   0.05563   0.07474   0.10868
  Beta virt. eigenvalues --    0.13242   0.13640   0.15997   0.16410   0.17905
  Beta virt. eigenvalues --    0.19851   0.19857   0.22485   0.24957   0.26074

 Mulliken charges and spin densities:
               1          2
     1  C    0.248114   0.602018
     2  C   -0.394897  -0.052710
     3  H    0.136036   0.000987
     4  H    0.136870   0.030304
     5  H    0.136906   0.030361
     6  C    0.084972  -0.160911
     7  C   -0.139985   0.242275
     8  C   -0.151637   0.229825
     9  C   -0.102638  -0.126540
    10  H    0.095612  -0.010736
    11  C   -0.109145  -0.123997
    12  H    0.090819  -0.010172
    13  C   -0.115742   0.269021
    14  H    0.092604   0.004523
    15  H    0.093715   0.004415
    16  H    0.090355  -0.012577
    17  O   -0.537408   0.087061
    18  H    0.345450  -0.003147
 Sum of Mulliken charges =  -0.00000   1.00000

 Dipole moment (field-independent basis, Debye):
    X=             -3.2465    Y=              1.1499    Z=             -0.0005  Tot=              3.4441
 Quadrupole moment (field-independent basis, Debye-Ang):
   XX=            -38.0316   YY=            -49.9854   ZZ=            -56.4745
   XY=             -0.5189   XZ=              0.0017   YZ=              0.0014

 Normal termination of Gaussian 16 at Thu May 16 17:29:03 2019.
