 Gaussian 16, Revision B.01,
 Gaussian 16:  ES64L-G16RevB.01 20-Dec-2017

 ----------------------------------------------------------------------
 #p opt freq rb3lyp/6-31g(d,p) scrf=(iefpcm,solvent=acetonitrile) empir
 icaldispersion=gd3
 ----------------------------------------------------------------------

 -------------------
 Title Card Required
 -------------------
 Symbolic Z-matrix:
 Charge =  0 Multiplicity = 1

 SCF Done:  E(RB3LYP) =  -496.811435104     A.U. after   12 cycles
 SCF Done:  E(RB3LYP) =  -496.809160654     A.U. after   12 cycles
 SCF Done:  E(RB3LYP) =  -496.811518840     A.U. after   11 cycles
 SCF Done:  E(RB3LYP) =  -496.811689866     A.U. after   12 cycles
 SCF Done:  E(RB3LYP) =  -496.811741329     A.U. after   12 cycles
 SCF Done:  E(RB3LYP) =  -496.811795335     A.U. after   10 cycles
 SCF Done:  E(RB3LYP) =  -496.811931510     A.U. after   13 cycles
 SCF Done:  E(RB3LYP) =  -496.811884854     A.U. after   10 cycles
 SCF Done:  E(RB3LYP) =  -496.811912156     A.U. after   13 cycles
 SCF Done:  E(RB3LYP) =  -496.812038119     A.U. after   13 cycles
 SCF Done:  E(RB3LYP) =  -496.812906169     A.U. after   10 cycles
 SCF Done:  E(RB3LYP) =  -496.812909287     A.U. after    9 cycles
 SCF Done:  E(RB3LYP) =  -496.812910845     A.U. after    8 cycles
 SCF Done:  E(RB3LYP) =  -496.812912044     A.U. after    7 cycles
 SCF Done:  E(RB3LYP) =  -496.812912947     A.U. after    7 cycles
 SCF Done:  E(RB3LYP) =  -496.812913302     A.U. after    8 cycles
 SCF Done:  E(RB3LYP) =  -496.812913340     A.U. after    7 cycles
 SCF Done:  E(RB3LYP) =  -496.812913387     A.U. after    7 cycles
 SCF Done:  E(RB3LYP) =  -496.812913388     A.U. after    6 cycles
 Optimization completed.
    -- Stationary point found.
 Normal termination of Gaussian 16 at Fri May 10 12:12:26 2019.

 ----------------------------------------------------------------------
 #P Geom=AllCheck Guess=TCheck SCRF=Check GenChk RB3LYP/6-31G(d,p) Freq
 ----------------------------------------------------------------------

 Structure from the checkpoint file:  "AB.chk"
 -------------------
 Title Card Required
 -------------------
 Charge =  0 Multiplicity = 1

                         Standard orientation:
 ---------------------------------------------------------------------
 Center     Atomic      Atomic             Coordinates (Angstroms)
 Number     Number       Type             X           Y           Z
 ---------------------------------------------------------------------
      1          6           0        0.568326    0.210816   -0.404695
      2          1           0        4.902740   -0.957863   -0.402000
      3          8           0        1.259404   -0.785877   -0.613115
      4          7           0        3.818887   -0.333442    1.145330
      5          1           0        3.500957    0.593234    1.422347
      6          7           0        4.218046   -0.221155   -0.245149
      7          1           0        3.413694   -0.450090   -0.831653
      8          1           0        2.989393   -0.926021    1.209005
      9          6           0        1.188036    1.592164   -0.386071
     10          1           0        0.715121    2.235994   -1.134627
     11          1           0        1.036166    2.065539    0.589738
     12          1           0        2.255536    1.520265   -0.592445
     13          6           0       -0.898822    0.071220   -0.161174
     14          6           0       -1.461944   -1.216508   -0.176239
     15          6           0       -1.727815    1.178365    0.083471
     16          6           0       -2.823394   -1.394418    0.047758
     17          1           0       -0.812423   -2.064189   -0.365400
     18          6           0       -3.092445    0.998613    0.308223
     19          1           0       -1.316817    2.181601    0.100673
     20          6           0       -3.641595   -0.285698    0.290616
     21          1           0       -3.249722   -2.392727    0.034242
     22          1           0       -3.726118    1.859493    0.496723
     23          1           0       -4.704364   -0.423359    0.465721
 ---------------------------------------------------------------------

 SCF Done:  E(RB3LYP) =  -496.812913388     A.U. after    1 cycles

 The electronic state is 1-A.
 Alpha  occ. eigenvalues --  -19.14946 -14.33095 -14.32720 -10.28763 -10.20568
 Alpha  occ. eigenvalues --  -10.20506 -10.20373 -10.20097 -10.19969 -10.19908
 Alpha  occ. eigenvalues --  -10.18881  -1.04553  -0.93098  -0.86455  -0.77728
 Alpha  occ. eigenvalues --   -0.75523  -0.73607  -0.73296  -0.63354  -0.61080
 Alpha  occ. eigenvalues --   -0.55633  -0.51538  -0.48697  -0.47182  -0.46740
 Alpha  occ. eigenvalues --   -0.46321  -0.44714  -0.44581  -0.43271  -0.42893
 Alpha  occ. eigenvalues --   -0.42105  -0.39123  -0.38152  -0.36161  -0.35842
 Alpha  occ. eigenvalues --   -0.34873  -0.26471  -0.26354  -0.26142  -0.24973
 Alpha  occ. eigenvalues --   -0.23988
 Alpha virt. eigenvalues --   -0.06357  -0.01094   0.03471   0.08210   0.10125
 Alpha virt. eigenvalues --    0.11396   0.13024   0.14646   0.15144   0.15783
 Alpha virt. eigenvalues --    0.16625   0.17695   0.18117   0.19043   0.19241

 Mulliken charges:
               1
     1  C    0.404532
     2  H    0.259569
     3  O   -0.501811
     4  N   -0.531496
     5  H    0.261860
     6  N   -0.537097
     7  H    0.260410
     8  H    0.253593
     9  C   -0.413346
    10  H    0.150353
    11  H    0.151902
    12  H    0.139925
    13  C    0.051394
    14  C   -0.106304
    15  C   -0.125324
    16  C   -0.099163
    17  H    0.114045
    18  C   -0.103591
    19  H    0.114660
    20  C   -0.084358
    21  H    0.112363
    22  H    0.113246
    23  H    0.114639
 Sum of Mulliken charges =  -0.00000

 Dipole moment (field-independent basis, Debye):
    X=             -5.6814    Y=              1.6261    Z=             -0.0316  Tot=              5.9096
 Quadrupole moment (field-independent basis, Debye-Ang):
   XX=            -76.1352   YY=            -58.0862   ZZ=            -68.2986
   XY=             -0.7793   XZ=             -5.1594   YZ=              1.4950

  Exact polarizability: 175.716  -0.939 139.054 -19.380   7.931  67.576
 Approx polarizability: 202.428  -8.366 175.233 -23.947  11.698  82.359

                      1                      2                      3
                      A                      A                      A
 Frequencies --     20.1871                40.0810                64.8942
 Red. masses --      5.8708                 3.7127                 3.0407
 Frc consts  --      0.0014                 0.0035                 0.0075
 IR Inten    --      0.6233                 0.3804                11.9121

                      4                      5                      6
                      A                      A                      A
 Frequencies --     85.6257               115.4994               136.3181
 Red. masses --      3.5621                 5.4288                 3.0970
 Frc consts  --      0.0154                 0.0427                 0.0339
 IR Inten    --      6.7971                 1.6133                10.2754

                      7                      8                      9
                      A                      A                      A
 Frequencies --    159.0293               194.8579               218.7098
 Red. masses --      4.6896                 1.0885                 1.1620
 Frc consts  --      0.0699                 0.0244                 0.0327
 IR Inten    --      0.4837                12.9085                67.6919

                     10                     11                     12
                      A                      A                      A
 Frequencies --    250.9675               384.1205               413.6229
 Red. masses --      3.3176                 4.4704                 2.9164
 Frc consts  --      0.1231                 0.3886                 0.2940
 IR Inten    --     19.3631                 0.9022                 0.0816

                     13                     14                     15
                      A                      A                      A
 Frequencies --    428.2678               434.0549               478.8419
 Red. masses --      1.1735                 2.6347                 4.3792
 Frc consts  --      0.1268                 0.2925                 0.5916
 IR Inten    --     72.1978                 9.5118                 1.4689

                     16                     17                     18
                      A                      A                      A
 Frequencies --    604.3023               606.7015               629.6497
 Red. masses --      4.5007                 2.4479                 6.4265
 Frc consts  --      0.9684                 0.5309                 1.5011
 IR Inten    --     40.4409                13.3785                 2.0010

                     19                     20                     21
                      A                      A                      A
 Frequencies --    703.2442               747.6021               779.2180
 Red. masses --      1.9147                 5.0834                 1.6535
 Frc consts  --      0.5579                 1.6740                 0.5915
 IR Inten    --     35.5619                 0.6424                40.3034

                     22                     23                     24
                      A                      A                      A
 Frequencies --    866.1455               884.1093               954.0285
 Red. masses --      1.2498                 2.9376                 1.3410
 Frc consts  --      0.5524                 1.3529                 0.7191
 IR Inten    --      0.0151               108.6775                 3.4731

                     25                     26                     27
                      A                      A                      A
 Frequencies --    970.6134               993.8991              1014.5170
 Red. masses --      2.1986                 1.3620                 6.0505
 Frc consts  --      1.2203                 0.7927                 3.6691
 IR Inten    --     51.3330                 0.1259                 1.7447

                     28                     29                     30
                      A                      A                      A
 Frequencies --   1017.1183              1047.9706              1050.7324
 Red. masses --      1.2956                 1.8708                 2.5082
 Frc consts  --      0.7897                 1.2106                 1.6316
 IR Inten    --      0.3004                 7.3321                 5.9126

                     31                     32                     33
                      A                      A                      A
 Frequencies --   1091.6120              1105.1607              1121.1038
 Red. masses --      1.1799                 2.0076                 1.5570
 Frc consts  --      0.8284                 1.4447                 1.1530
 IR Inten    --    174.1439                20.2252                13.3080

                     34                     35                     36
                      A                      A                      A
 Frequencies --   1153.0810              1194.8304              1214.7726
 Red. masses --      1.4404                 1.1047                 1.1484
 Frc consts  --      1.1284                 0.9292                 0.9984
 IR Inten    --     99.5671                 1.8932                28.2175

                     37                     38                     39
                      A                      A                      A
 Frequencies --   1291.9883              1334.9737              1347.2206
 Red. masses --      3.4251                 1.2090                 1.8793
 Frc consts  --      3.3685                 1.2694                 2.0096
 IR Inten    --    310.6006                17.1006                12.9146

                     40                     41                     42
                      A                      A                      A
 Frequencies --   1356.1881              1367.0435              1399.9266
 Red. masses --      1.1999                 2.7994                 1.3075
 Frc consts  --      1.3003                 3.0824                 1.5097
 IR Inten    --      3.3981                 7.2169                66.6578

                     43                     44                     45
                      A                      A                      A
 Frequencies --   1481.4413              1487.5898              1489.2897
 Red. masses --      1.0715                 2.1553                 1.0709
 Frc consts  --      1.3856                 2.8101                 1.3994
 IR Inten    --     15.6804                29.2655                13.6355

                     46                     47                     48
                      A                      A                      A
 Frequencies --   1534.5127              1630.7649              1651.2941
 Red. masses --      2.1448                 5.3055                 5.2799
 Frc consts  --      2.9756                 8.3130                 8.4825
 IR Inten    --      3.5275                31.4568                76.0670

                     49                     50                     51
                      A                      A                      A
 Frequencies --   1676.5145              1692.4664              1736.6872
 Red. masses --      1.1266                 1.0612                 6.9603
 Frc consts  --      1.8657                 1.7910                12.3686
 IR Inten    --    120.7983                10.1085               314.6715

                     52                     53                     54
                      A                      A                      A
 Frequencies --   3053.9272              3118.6869              3172.5453
 Red. masses --      1.0379                 1.0999                 1.1030
 Frc consts  --      5.7035                 6.3028                 6.5411
 IR Inten    --      3.2619                 6.1134                 6.8644

                     55                     56                     57
                      A                      A                      A
 Frequencies --   3187.3786              3197.4968              3206.9963
 Red. masses --      1.0863                 1.0895                 1.0935
 Frc consts  --      6.5023                 6.5631                 6.6261
 IR Inten    --      0.2677                13.0626                28.2516

                     58                     59                     60
                      A                      A                      A
 Frequencies --   3217.8523              3220.4013              3441.0290
 Red. masses --      1.0931                 1.0959                 1.0513
 Frc consts  --      6.6684                 6.6962                 7.3345
 IR Inten    --     24.0335                 6.3925                62.0047

                     61                     62                     63
                      A                      A                      A
 Frequencies --   3445.4715              3530.8850              3538.2936
 Red. masses --      1.0513                 1.0923                 1.0904
 Frc consts  --      7.3530                 8.0235                 8.0433
 IR Inten    --      5.9927                 5.5107                 4.9588

 - Thermochemistry -
 -------------------
 Temperature   298.150 Kelvin.  Pressure   1.00000 Atm.
 Atom     1 has atomic number  6 and mass  12.00000

 Molecular mass:   152.09496 amu.
 Principal axes and moments of inertia in atomic units:
                           1         2         3
     Eigenvalues --   661.389573901.093194284.62788
           X            1.00000   0.00218  -0.00169
           Y           -0.00218   1.00000  -0.00089
           Z            0.00169   0.00090   1.00000
 This molecule is an asymmetric top.
 Rotational symmetry number  1.
 Warning -- assumption of classical behavior for rotation
           may cause significant error
 Rotational temperatures (Kelvin)      0.13096     0.02220     0.02022
 Rotational constants (GHZ):           2.72871     0.46262     0.42121
 Zero-point vibrational energy     508319.3 (Joules/Mol)
                                  121.49124 (Kcal/Mol)
 Warning -- explicit consideration of  17 degrees of freedom as
           vibrations may cause significant error
 Vibrational temperatures:     29.04    57.67    93.37   123.20   166.18
          (Kelvin)            196.13   228.81   280.36   314.67   361.09
                              552.66   595.11   616.18   624.51   688.95
                              869.46   872.91   905.93  1011.81  1075.63
                             1121.12  1246.19  1272.04  1372.63  1396.50
                             1430.00  1459.66  1463.41  1507.80  1511.77
                             1570.59  1590.08  1613.02  1659.03  1719.09
                             1747.79  1858.88  1920.73  1938.35  1951.25
                             1966.87  2014.18  2131.46  2140.31  2142.76
                             2207.82  2346.31  2375.84  2412.13  2435.08
                             2498.71  4393.92  4487.09  4564.59  4585.93
                             4600.48  4614.15  4629.77  4633.44  4950.87
                             4957.27  5080.16  5090.82

 Zero-point correction=                           0.193609 (Hartree/Particle)
 Thermal correction to Energy=                    0.206105
 Thermal correction to Enthalpy=                  0.207050
 Thermal correction to Gibbs Free Energy=         0.152864
 Sum of electronic and zero-point Energies=           -496.619305
 Sum of electronic and thermal Energies=              -496.606808
 Sum of electronic and thermal Enthalpies=            -496.605864
 Sum of electronic and thermal Free Energies=         -496.660049

                     E (Thermal)             CV                S
                      KCal/Mol        Cal/Mol-Kelvin    Cal/Mol-Kelvin
 Total                  129.333             43.726            114.044
 Electronic               0.000              0.000              0.000
 Translational            0.889              2.981             40.968
 Rotational               0.889              2.981             30.781
 Vibrational            127.556             37.765             42.294
 Vibration     1          0.593              1.986              6.616
 Vibration     2          0.594              1.981              5.255
 Vibration     3          0.597              1.971              4.303
 Vibration     4          0.601              1.959              3.758
 Vibration     5          0.608              1.937              3.174
 Vibration     6          0.614              1.917              2.855
 Vibration     7          0.621              1.892              2.561
 Vibration     8          0.636              1.847              2.181
 Vibration     9          0.646              1.813              1.970
 Vibration    10          0.663              1.761              1.724
 Vibration    11          0.753              1.504              1.023
 Vibration    12          0.777              1.441              0.914
 Vibration    13          0.790              1.409              0.864
 Vibration    14          0.795              1.396              0.846
 Vibration    15          0.835              1.297              0.713
 Vibration    16          0.963              1.023              0.442
 Vibration    17          0.965              1.018              0.438

 Optimization completed.
    -- Stationary point found.
 Normal termination of Gaussian 16 at Fri May 10 12:13:37 2019.
