 Gaussian 16, Revision A.03,
 Gaussian 16:  ES64L-G16RevA.03 25-Dec-2016

 ----------------------------------------------------------------------
 #p opt ub3lyp/6-31g(d,p) scrf=(iefpcm,solvent=acetonitrile) empiricald
 ispersion=gd3
 ----------------------------------------------------------------------

 ----------------------------------------------------------
 Start with the ground state acetophenone-hydrazine complex
 ----------------------------------------------------------
 Symbolic Z-matrix:
 Charge =  0 Multiplicity = 3

 SCF Done:  E(UB3LYP) =  -496.686158725     A.U. after   25 cycles
 SCF Done:  E(UB3LYP) =  -496.694725906     A.U. after   18 cycles
 SCF Done:  E(UB3LYP) =  -496.697439192     A.U. after   18 cycles
 SCF Done:  E(UB3LYP) =  -496.697728151     A.U. after   17 cycles
 SCF Done:  E(UB3LYP) =  -496.697862078     A.U. after   17 cycles
 SCF Done:  E(UB3LYP) =  -496.697925906     A.U. after   16 cycles
 SCF Done:  E(UB3LYP) =  -496.698051584     A.U. after   17 cycles
 SCF Done:  E(UB3LYP) =  -496.698142678     A.U. after   17 cycles
 SCF Done:  E(UB3LYP) =  -496.698237696     A.U. after   16 cycles
 SCF Done:  E(UB3LYP) =  -496.703744303     A.U. after   19 cycles
 SCF Done:  E(UB3LYP) =  -496.749204318     A.U. after    8 cycles
 SCF Done:  E(UB3LYP) =  -496.749204403     A.U. after    8 cycles
 SCF Done:  E(UB3LYP) =  -496.749204555     A.U. after    8 cycles
 SCF Done:  E(UB3LYP) =  -496.749204788     A.U. after    8 cycles
 SCF Done:  E(UB3LYP) =  -496.749204916     A.U. after    8 cycles
 SCF Done:  E(UB3LYP) =  -496.749205080     A.U. after    8 cycles
 SCF Done:  E(UB3LYP) =  -496.749205236     A.U. after    8 cycles
 SCF Done:  E(UB3LYP) =  -496.749205333     A.U. after    8 cycles
 SCF Done:  E(UB3LYP) =  -496.749205352     A.U. after    8 cycles
 SCF Done:  E(UB3LYP) =  -496.749205350     A.U. after    7 cycles
 Optimization completed.
    -- Stationary point found.

                         Standard orientation:
 ---------------------------------------------------------------------
 Center     Atomic      Atomic             Coordinates (Angstroms)
 Number     Number       Type             X           Y           Z
 ---------------------------------------------------------------------
      1          6           0        0.460496    0.283439   -0.197541
      2          1           0        4.518360   -0.129839   -1.184047
      3          8           0        1.235446   -0.816627   -0.331369
      4          7           0        4.588777   -0.214363    0.734092
      5          1           0        4.136389   -0.598826    1.554085
      6          7           0        3.899189   -0.368785   -0.407067
      7          1           0        2.210967   -0.591753   -0.387828
      8          1           0        5.602005   -0.279220    0.729606
      9          6           0        1.098945    1.644538   -0.195669
     10          1           0        0.724703    2.268459   -1.018084
     11          1           0        0.887606    2.189980    0.733433
     12          1           0        2.182519    1.565247   -0.299833
     13          6           0       -0.937889    0.084008   -0.070852
     14          6           0       -1.504054   -1.228339   -0.073337
     15          6           0       -1.842429    1.181198    0.065271
     16          6           0       -2.872026   -1.418109    0.051599
     17          1           0       -0.841728   -2.080942   -0.174259
     18          6           0       -3.209167    0.971655    0.189163
     19          1           0       -1.459887    2.196770    0.072189
     20          6           0       -3.744383   -0.325448    0.184293
     21          1           0       -3.271992   -2.429254    0.046423
     22          1           0       -3.870870    1.828262    0.291017
     23          1           0       -4.814367   -0.481479    0.281514
 ---------------------------------------------------------------------

 The electronic state is 3-A.
 Alpha  occ. eigenvalues --  -19.15213 -14.39928 -14.36663 -10.23470 -10.18219
 Alpha  occ. eigenvalues --  -10.17992 -10.17929 -10.17867 -10.17837 -10.17579
 Alpha  occ. eigenvalues --  -10.17550  -1.03499  -1.00090  -0.84089  -0.76923
 Alpha  occ. eigenvalues --   -0.75357  -0.73403  -0.71501  -0.63810  -0.58959
 Alpha  occ. eigenvalues --   -0.56842  -0.55831  -0.50805  -0.49578  -0.48326
 Alpha  occ. eigenvalues --   -0.45231  -0.43469  -0.43189  -0.41857  -0.40848
 Alpha  occ. eigenvalues --   -0.40747  -0.38032  -0.36760  -0.35297  -0.34705
 Alpha  occ. eigenvalues --   -0.34266  -0.32223  -0.30453  -0.25468  -0.24725
 Alpha  occ. eigenvalues --   -0.20244  -0.13303
 Alpha virt. eigenvalues --    0.00796   0.03649   0.07130   0.10142   0.10950
 Alpha virt. eigenvalues --    0.12500   0.14586   0.15347   0.15741   0.16737
 Alpha virt. eigenvalues --    0.17614   0.19014   0.19662   0.21136   0.22428

  Beta  occ. eigenvalues --  -19.14820 -14.39155 -14.35254 -10.22594 -10.18371
  Beta  occ. eigenvalues --  -10.18060 -10.18045 -10.18004 -10.17565 -10.17271
  Beta  occ. eigenvalues --  -10.17246  -1.02533  -0.97903  -0.83740  -0.76103
  Beta  occ. eigenvalues --   -0.73124  -0.72528  -0.71176  -0.62851  -0.58779
  Beta  occ. eigenvalues --   -0.56335  -0.55259  -0.50519  -0.48632  -0.47606
  Beta  occ. eigenvalues --   -0.44781  -0.43308  -0.41663  -0.41548  -0.40719
  Beta  occ. eigenvalues --   -0.38031  -0.35534  -0.34889  -0.34065  -0.33834
  Beta  occ. eigenvalues --   -0.32864  -0.31902  -0.29208  -0.23985  -0.23788
  Beta virt. eigenvalues --   -0.05301  -0.04526   0.01443   0.06239   0.07697
  Beta virt. eigenvalues --    0.10401   0.11568   0.12679   0.15102   0.15637
  Beta virt. eigenvalues --    0.15994   0.17561   0.17833   0.19826   0.19992

 Mulliken charges and spin densities:
               1          2
     1  C    0.230608   0.565464
     2  H    0.277877  -0.022695
     3  O   -0.582797   0.116159
     4  N   -0.370035   0.335299
     5  H    0.313960  -0.007775
     6  N   -0.427327   0.708138
     7  H    0.382160  -0.014529
     8  H    0.308235  -0.004488
     9  C   -0.387160  -0.045982
    10  H    0.128355   0.026566
    11  H    0.128045   0.025834
    12  H    0.122967   0.000569
    13  C    0.095895  -0.128506
    14  C   -0.148085   0.223983
    15  C   -0.161417   0.219890
    16  C   -0.104431  -0.117099
    17  H    0.086905  -0.010127
    18  C   -0.109839  -0.117100
    19  H    0.083524  -0.009805
    20  C   -0.123370   0.260226
    21  H    0.085898   0.004170
    22  H    0.086727   0.004147
    23  H    0.083304  -0.012340
 Sum of Mulliken charges =  -0.00000   2.00000

 Dipole moment (field-independent basis, Debye):
    X=              8.5807    Y=              1.1685    Z=              1.2156  Tot=              8.7448
 Quadrupole moment (field-independent basis, Debye-Ang):
   XX=            -25.8172   YY=            -64.0869   ZZ=            -64.9447
   XY=             -2.1745   XZ=              3.7725   YZ=             -2.0652

 Normal termination of Gaussian 16 at Mon Jul 15 21:44:42 2019.
