 Gaussian 16, Revision B.01,
 Gaussian 16:  ES64L-G16RevB.01 20-Dec-2017

 ----------------------------------------------------------------------
 #p opt freq b3lyp/6-31g(d,p) scrf=(iefpcm,solvent=acetonitrile) empiri
 caldispersion=gd3
 ----------------------------------------------------------------------

 -------------------
 Title Card Required
 -------------------
 Symbolic Z-matrix:
 Charge =  0 Multiplicity = 1

 SCF Done:  E(RB3LYP) =  -771.014718508     A.U. after   12 cycles
 SCF Done:  E(RB3LYP) =  -771.036783157     A.U. after   11 cycles
 SCF Done:  E(RB3LYP) =  -771.043153837     A.U. after   12 cycles
 SCF Done:  E(RB3LYP) =  -771.046938776     A.U. after   10 cycles
 SCF Done:  E(RB3LYP) =  -771.052193819     A.U. after   13 cycles
 SCF Done:  E(RB3LYP) =  -771.056023463     A.U. after   11 cycles
 SCF Done:  E(RB3LYP) =  -771.058751515     A.U. after   11 cycles
 SCF Done:  E(RB3LYP) =  -771.060267209     A.U. after   10 cycles
 SCF Done:  E(RB3LYP) =  -771.060643267     A.U. after   10 cycles
 SCF Done:  E(RB3LYP) =  -771.060955247     A.U. after   10 cycles
 SCF Done:  E(RB3LYP) =  -771.061091997     A.U. after    9 cycles
 SCF Done:  E(RB3LYP) =  -771.061134385     A.U. after   10 cycles
 SCF Done:  E(RB3LYP) =  -771.061157206     A.U. after    8 cycles
 SCF Done:  E(RB3LYP) =  -771.061167378     A.U. after    9 cycles
 SCF Done:  E(RB3LYP) =  -771.061168710     A.U. after    7 cycles
 SCF Done:  E(RB3LYP) =  -771.061169370     A.U. after    7 cycles
 SCF Done:  E(RB3LYP) =  -771.061169670     A.U. after    7 cycles
 Optimization completed.
    -- Stationary point found.
 Normal termination of Gaussian 16 at Fri May 10 16:05:37 2019.

 ----------------------------------------------------------------------
 #P Geom=AllCheck Guess=TCheck SCRF=Check GenChk RB3LYP/6-31G(d,p) Freq
 ----------------------------------------------------------------------

 Structure from the checkpoint file:  "AA.chk"
 -------------------
 Title Card Required
 -------------------
 Charge =  0 Multiplicity = 1

                         Standard orientation:
 ---------------------------------------------------------------------
 Center     Atomic      Atomic             Coordinates (Angstroms)
 Number     Number       Type             X           Y           Z
 ---------------------------------------------------------------------
      1          6           0        0.580738   -1.387238   -0.470991
      2          6           0       -0.691689   -1.366159    0.483917
      3          6           0       -1.478861   -0.052083    0.322139
      4          6           0       -2.659151   -0.019288   -0.430379
      5          6           0       -1.049052    1.139735    0.927246
      6          6           0       -3.382012    1.165240   -0.587891
      7          1           0       -3.025940   -0.931680   -0.884936
      8          6           0       -1.769797    2.324715    0.774747
      9          1           0       -0.135706    1.154880    1.510744
     10          6           0       -2.940052    2.344667    0.013133
     11          1           0       -4.294198    1.162337   -1.178071
     12          1           0       -1.413269    3.233165    1.251919
     13          1           0       -3.501714    3.266596   -0.106278
     14          6           0        1.489507   -0.167734   -0.307562
     15          6           0        1.395465    0.905128   -1.204041
     16          6           0        2.416138   -0.076813    0.742378
     17          6           0        2.195856    2.038282   -1.054533
     18          1           0        0.677977    0.848875   -2.013745
     19          6           0        3.211073    1.059851    0.900024
     20          1           0        2.522140   -0.890100    1.451772
     21          6           0        3.104640    2.123615    0.001629
     22          1           0        2.103258    2.857705   -1.761575
     23          1           0        3.917174    1.109679    1.723770
     24          1           0        3.725198    3.006565    0.122467
     25          1           0        0.634230   -1.632565   -2.427926
     26          1           0       -1.456869   -2.506314   -0.868844
     27          8           0       -1.501730   -2.482467    0.101651
     28          8           0       -0.035797   -1.385341   -1.775634
     29          6           0        1.368959   -2.698243   -0.320035
     30          1           0        2.138589   -2.750573   -1.097133
     31          1           0        1.872758   -2.778234    0.643920
     32          1           0        0.692790   -3.547660   -0.427443
     33          6           0       -0.346426   -1.607064    1.956341
     34          1           0       -1.271107   -1.597368    2.538984
     35          1           0        0.126140   -2.582994    2.081677
     36          1           0        0.316748   -0.839509    2.355832
 ---------------------------------------------------------------------

 SCF Done:  E(RB3LYP) =  -771.061169670     A.U. after    1 cycles

 The electronic state is 1-A.
 Alpha  occ. eigenvalues --  -19.15991 -19.14190 -10.25571 -10.25118 -10.19643
 Alpha  occ. eigenvalues --  -10.19135 -10.19133 -10.19055 -10.19019 -10.18961
 Alpha  occ. eigenvalues --  -10.18669 -10.18641 -10.18635 -10.18591 -10.18499
 Alpha  occ. eigenvalues --  -10.18355 -10.17856 -10.17569  -1.04341  -1.00947
 Alpha  occ. eigenvalues --   -0.85678  -0.84867  -0.79447  -0.75846  -0.74404
 Alpha  occ. eigenvalues --   -0.73936  -0.73012  -0.71353  -0.65716  -0.61288
 Alpha  occ. eigenvalues --   -0.60197  -0.59726  -0.58844  -0.55926  -0.52806
 Alpha  occ. eigenvalues --   -0.52160  -0.49340  -0.48901  -0.46761  -0.44888
 Alpha  occ. eigenvalues --   -0.44610  -0.44084  -0.43843  -0.43589  -0.41865
 Alpha  occ. eigenvalues --   -0.41539  -0.39647  -0.39142  -0.38799  -0.38219
 Alpha  occ. eigenvalues --   -0.37966  -0.36888  -0.36009  -0.35668  -0.34907
 Alpha  occ. eigenvalues --   -0.33817  -0.33386  -0.33140  -0.32167  -0.28937
 Alpha  occ. eigenvalues --   -0.27507  -0.25525  -0.24669  -0.24273  -0.23772
 Alpha virt. eigenvalues --   -0.00978  -0.00440   0.00032   0.00579   0.07307
 Alpha virt. eigenvalues --    0.09866   0.10042   0.11712   0.12639   0.13231
 Alpha virt. eigenvalues --    0.13740   0.14872   0.15261   0.15513   0.15979

 Mulliken charges:
               1
     1  C    0.212099
     2  C    0.230141
     3  C    0.110993
     4  C   -0.131086
     5  C   -0.116619
     6  C   -0.108334
     7  H    0.085689
     8  C   -0.115771
     9  H    0.097193
    10  C   -0.100479
    11  H    0.095964
    12  H    0.096880
    13  H    0.096256
    14  C    0.087037
    15  C   -0.113678
    16  C   -0.136185
    17  C   -0.103469
    18  H    0.100025
    19  C   -0.109320
    20  H    0.101221
    21  C   -0.098695
    22  H    0.100247
    23  H    0.102202
    24  H    0.100644
    25  H    0.330710
    26  H    0.326340
    27  O   -0.591814
    28  O   -0.591287
    29  C   -0.331249
    30  H    0.111972
    31  H    0.119914
    32  H    0.119288
    33  C   -0.324942
    34  H    0.116899
    35  H    0.115030
    36  H    0.116183
 Sum of Mulliken charges =  -0.00000

 Dipole moment (field-independent basis, Debye):
    X=              3.1391    Y=              0.2082    Z=             -1.1089  Tot=              3.3357
 Quadrupole moment (field-independent basis, Debye-Ang):
   XX=           -104.0699   YY=           -100.6779   ZZ=            -99.3729
   XY=             -4.3946   XZ=              4.5908   YZ=              4.0857

  Exact polarizability: 218.395  10.086 249.826  50.255  -3.734 178.209
 Approx polarizability: 251.063  16.596 297.264  69.188  -4.752 222.929

                      1                      2                      3
                      A                      A                      A
 Frequencies --     30.0770                58.2449                68.1737
 Red. masses --      4.3907                 3.9343                 4.2659
 Frc consts  --      0.0023                 0.0079                 0.0117
 IR Inten    --      0.0937                 0.5975                 0.0891

                      4                      5                      6
                      A                      A                      A
 Frequencies --     88.5837               111.8044               221.9282
 Red. masses --      3.9798                 4.2556                 2.7465
 Frc consts  --      0.0184                 0.0313                 0.0797
 IR Inten    --      1.1946                 1.0329                 0.4517

                      7                      8                      9
                      A                      A                      A
 Frequencies --    239.7210               241.7837               253.6293
 Red. masses --      3.0086                 2.2714                 1.5584
 Frc consts  --      0.1019                 0.0782                 0.0591
 IR Inten    --      2.6011                 0.1499                 4.1311

                     10                     11                     12
                      A                      A                      A
 Frequencies --    272.0035               277.4668               310.9954
 Red. masses --      3.6643                 1.7618                 2.9341
 Frc consts  --      0.1597                 0.0799                 0.1672
 IR Inten    --      0.7979                 1.7189                 2.5103

                     13                     14                     15
                      A                      A                      A
 Frequencies --    327.2111               342.4626               351.1342
 Red. masses --      2.3762                 1.1250                 3.2723
 Frc consts  --      0.1499                 0.0777                 0.2377
 IR Inten    --      0.0287               128.5983                 0.0988

                     16                     17                     18
                      A                      A                      A
 Frequencies --    371.3303               384.7087               418.3039
 Red. masses --      4.3170                 4.0144                 2.9809
 Frc consts  --      0.3507                 0.3500                 0.3073
 IR Inten    --      9.5478                42.6545                 0.2520

                     19                     20                     21
                      A                      A                      A
 Frequencies --    424.5045               451.5004               464.2478
 Red. masses --      2.9238                 3.5409                 3.6789
 Frc consts  --      0.3104                 0.4253                 0.4672
 IR Inten    --      5.4594                 5.0380                10.5936

                     22                     23                     24
                      A                      A                      A
 Frequencies --    498.7361               517.4264               582.9951
 Red. masses --      4.4147                 3.7142                 3.9034
 Frc consts  --      0.6470                 0.5859                 0.7817
 IR Inten    --     10.2069                 8.9227                11.4630

                     25                     26                     27
                      A                      A                      A
 Frequencies --    595.0071               605.3111               633.4216
 Red. masses --      2.1411                 1.4386                 6.3728
 Frc consts  --      0.4466                 0.3106                 1.5065
 IR Inten    --     50.8965               170.3482                 0.0362

                     28                     29                     30
                      A                      A                      A
 Frequencies --    634.8773               650.3348               693.9419
 Red. masses --      5.6009                 4.0440                 4.9714
 Frc consts  --      1.3301                 1.0077                 1.4105
 IR Inten    --      5.1175                58.0571                 6.8489

                     31                     32                     33
                      A                      A                      A
 Frequencies --    715.7390               721.6090               773.1713
 Red. masses --      1.7465                 1.7491                 2.2549
 Frc consts  --      0.5271                 0.5366                 0.7942
 IR Inten    --     37.6852                55.0088                22.0894

                     34                     35                     36
                      A                      A                      A
 Frequencies --    775.9046               806.7927               862.0367
 Red. masses --      2.2164                 2.5326                 1.7137
 Frc consts  --      0.7862                 0.9713                 0.7503
 IR Inten    --     32.1554                 3.7652                 5.3014

                     37                     38                     39
                      A                      A                      A
 Frequencies --    862.6596               870.7145               929.8311
 Red. masses --      1.4627                 1.2655                 1.7363
 Frc consts  --      0.6413                 0.5653                 0.8845
 IR Inten    --      2.5806                 0.7138                23.8654

                     40                     41                     42
                      A                      A                      A
 Frequencies --    934.7131               943.2633               951.7082
 Red. masses --      1.6850                 1.9110                 1.7808
 Frc consts  --      0.8674                 1.0018                 0.9503
 IR Inten    --     25.6795                17.6598                23.7265

                     43                     44                     45
                      A                      A                      A
 Frequencies --    978.6913               988.3702              1000.2540
 Red. masses --      1.3527                 1.3419                 1.2495
 Frc consts  --      0.7634                 0.7723                 0.7366
 IR Inten    --      0.4444                 0.0731                 0.5237

                     46                     47                     48
                      A                      A                      A
 Frequencies --   1007.5378              1015.1398              1015.6556
 Red. masses --      1.2654                 5.8251                 5.7007
 Frc consts  --      0.7568                 3.5367                 3.4648
 IR Inten    --      0.7341                 0.9481                 0.7362

                     49                     50                     51
                      A                      A                      A
 Frequencies --   1050.5088              1053.4489              1063.3125
 Red. masses --      2.8175                 2.5814                 2.1812
 Frc consts  --      1.8320                 1.6879                 1.4530
 IR Inten    --     33.0406                32.8815                88.3803

                     52                     53                     54
                      A                      A                      A
 Frequencies --   1075.7226              1101.6264              1108.3777
 Red. masses --      1.8372                 1.7714                 1.7922
 Frc consts  --      1.2526                 1.2666                 1.2972
 IR Inten    --     24.1828                26.8810                36.4075

                     55                     56                     57
                      A                      A                      A
 Frequencies --   1112.2459              1121.9954              1151.5235
 Red. masses --      1.8737                 1.6605                 2.4449
 Frc consts  --      1.3657                 1.2316                 1.9101
 IR Inten    --     10.9303                18.5249                33.0533

                     58                     59                     60
                      A                      A                      A
 Frequencies --   1176.9637              1191.1770              1191.9422
 Red. masses --      2.6594                 1.0990                 1.1100
 Frc consts  --      2.1705                 0.9187                 0.9292
 IR Inten    --     50.1404                 0.0695                 0.9299

                     61                     62                     63
                      A                      A                      A
 Frequencies --   1218.3151              1223.9011              1242.3204
 Red. masses --      1.1363                 1.1396                 3.5720
 Frc consts  --      0.9938                 1.0058                 3.2481
 IR Inten    --      1.7891                 0.7854                48.2450

                     64                     65                     66
                      A                      A                      A
 Frequencies --   1270.5953              1320.8378              1338.4678
 Red. masses --      3.8910                 1.6983                 3.1893
 Frc consts  --      3.7011                 1.7457                 3.3664
 IR Inten    --     39.8528                64.6358                19.9434

                     67                     68                     69
                      A                      A                      A
 Frequencies --   1340.8080              1362.3693              1365.7049
 Red. masses --      2.6866                 1.8421                 1.6275
 Frc consts  --      2.8456                 2.0144                 1.7885
 IR Inten    --      4.6848                 7.5607                 0.3874

                     70                     71                     72
                      A                      A                      A
 Frequencies --   1380.7804              1420.7763              1427.2557
 Red. masses --      1.4339                 1.2652                 1.2654
 Frc consts  --      1.6107                 1.5047                 1.5187
 IR Inten    --    188.6824                20.1248                24.2473

                     73                     74                     75
                      A                      A                      A
 Frequencies --   1484.7121              1485.0553              1492.5663
 Red. masses --      2.1797                 2.1869                 1.0743
 Frc consts  --      2.8309                 2.8416                 1.4100
 IR Inten    --     17.2452                 7.8338                 1.5551

                     76                     77                     78
                      A                      A                      A
 Frequencies --   1501.5232              1506.9350              1518.4108
 Red. masses --      1.0588                 1.0564                 1.0606
 Frc consts  --      1.4065                 1.4134                 1.4407
 IR Inten    --      1.2697                10.0129                 4.0659

                     79                     80                     81
                      A                      A                      A
 Frequencies --   1536.7178              1539.0832              1633.6317
 Red. masses --      2.1222                 2.0769                 5.4913
 Frc consts  --      2.9527                 2.8987                 8.6345
 IR Inten    --     13.9416                10.1377                 1.1778

                     82                     83                     84
                      A                      A                      A
 Frequencies --   1635.1107              1656.9458              1657.7314
 Red. masses --      5.4380                 5.5243                 5.5126
 Frc consts  --      8.5662                 8.9360                 8.9255
 IR Inten    --      0.6506                 3.1921                 1.9677

                     85                     86                     87
                      A                      A                      A
 Frequencies --   3058.0988              3070.8994              3134.8468
 Red. masses --      1.0408                 1.0370                 1.0971
 Frc consts  --      5.7350                 5.7617                 6.3524
 IR Inten    --     28.0352                21.9965                31.8946

                     88                     89                     90
                      A                      A                      A
 Frequencies --   3143.4006              3161.7308              3166.8291
 Red. masses --      1.1013                 1.1028                 1.1022
 Frc consts  --      6.4116                 6.4951                 6.5126
 IR Inten    --     26.7870                37.6712                22.0433

                     91                     92                     93
                      A                      A                      A
 Frequencies --   3176.1063              3179.5516              3185.0827
 Red. masses --      1.0855                 1.0856                 1.0899
 Frc consts  --      6.4514                 6.4662                 6.5145
 IR Inten    --      0.6544                 0.7058                23.4216

                     94                     95                     96
                      A                      A                      A
 Frequencies --   3188.2921              3199.4274              3201.4221
 Red. masses --      1.0896                 1.0951                 1.0939
 Frc consts  --      6.5260                 6.6047                 6.6055
 IR Inten    --     18.8091                45.4384                47.6759

                     97                     98                     99
                      A                      A                      A
 Frequencies --   3211.4950              3215.0189              3220.9942
 Red. masses --      1.0946                 1.0928                 1.0923
 Frc consts  --      6.6512                 6.6549                 6.6767
 IR Inten    --     25.6112                27.8523                13.3720

                    100                    101                    102
                      A                      A                      A
 Frequencies --   3224.6904              3724.5551              3807.7052
 Red. masses --      1.0924                 1.0650                 1.0666
 Frc consts  --      6.6927                 8.7044                 9.1110
 IR Inten    --      8.1695                97.1572                49.7546

 - Thermochemistry -
 -------------------
 Temperature   298.150 Kelvin.  Pressure   1.00000 Atm.
 Atom     1 has atomic number  6 and mass  12.00000

 Molecular mass:   242.13068 amu.
 Principal axes and moments of inertia in atomic units:
                           1         2         3
     Eigenvalues --  3196.965544306.509425933.42499
           X            0.99963  -0.02526   0.01050
           Y            0.02534   0.99965  -0.00760
           Z           -0.01031   0.00786   0.99992
 This molecule is an asymmetric top.
 Rotational symmetry number  1.
 Warning -- assumption of classical behavior for rotation
           may cause significant error
 Rotational temperatures (Kelvin)      0.02709     0.02011     0.01460
 Rotational constants (GHZ):           0.56452     0.41907     0.30417
 Zero-point vibrational energy     798538.5 (Joules/Mol)
                                  190.85527 (Kcal/Mol)
 Warning -- explicit consideration of  26 degrees of freedom as
           vibrations may cause significant error
 Vibrational temperatures:     43.27    83.80    98.09   127.45   160.86
          (Kelvin)            319.31   344.91   347.87   364.92   391.35
                              399.21   447.45   470.78   492.73   505.20
                              534.26   553.51   601.85   610.77   649.61
                              667.95   717.57   744.46   838.80   856.08
                              870.91   911.35   913.45   935.69   998.43
                             1029.79  1038.23  1112.42  1116.35  1160.79
                             1240.28  1241.17  1252.76  1337.82  1344.84
                             1357.15  1369.30  1408.12  1422.04  1439.14
                             1449.62  1460.56  1461.30  1511.45  1515.68
                             1529.87  1547.72  1584.99  1594.71  1600.27
                             1614.30  1656.79  1693.39  1713.84  1714.94
                             1752.88  1760.92  1787.42  1828.10  1900.39
                             1925.76  1929.12  1960.15  1964.94  1986.64
                             2044.18  2053.50  2136.17  2136.66  2147.47
                             2160.36  2168.14  2184.65  2210.99  2214.40
                             2350.43  2352.56  2383.98  2385.11  4399.92
                             4418.34  4510.35  4522.65  4549.03  4556.36
                             4569.71  4574.67  4582.62  4587.24  4603.26
                             4606.13  4620.63  4625.70  4634.29  4639.61
                             5358.80  5478.44

 Zero-point correction=                           0.304147 (Hartree/Particle)
 Thermal correction to Energy=                    0.320103
 Thermal correction to Enthalpy=                  0.321047
 Thermal correction to Gibbs Free Energy=         0.261470
 Sum of electronic and zero-point Energies=           -770.757022
 Sum of electronic and thermal Energies=              -770.741067
 Sum of electronic and thermal Enthalpies=            -770.740122
 Sum of electronic and thermal Free Energies=         -770.799700

                     E (Thermal)             CV                S
                      KCal/Mol        Cal/Mol-Kelvin    Cal/Mol-Kelvin
 Total                  200.868             65.607            125.391
 Electronic               0.000              0.000              0.000
 Translational            0.889              2.981             42.354
 Rotational               0.889              2.981             32.768
 Vibrational            199.090             59.645             50.269
 Vibration     1          0.594              1.984              5.824
 Vibration     2          0.596              1.974              4.516
 Vibration     3          0.598              1.969              4.205
 Vibration     4          0.601              1.957              3.691
 Vibration     5          0.607              1.940              3.237
 Vibration     6          0.648              1.808              1.943
 Vibration     7          0.657              1.780              1.805
 Vibration     8          0.658              1.776              1.790
 Vibration     9          0.665              1.757              1.705
 Vibration    10          0.675              1.725              1.583
 Vibration    11          0.678              1.715              1.549
 Vibration    12          0.700              1.653              1.357
 Vibration    13          0.711              1.621              1.274
 Vibration    14          0.722              1.591              1.201
 Vibration    15          0.728              1.573              1.161
 Vibration    16          0.743              1.531              1.074
 Vibration    17          0.754              1.503              1.021
 Vibration    18          0.781              1.430              0.898
 Vibration    19          0.786              1.417              0.877
 Vibration    20          0.810              1.358              0.791
 Vibration    21          0.822              1.329              0.754
 Vibration    22          0.854              1.253              0.661
 Vibration    23          0.872              1.211              0.616
 Vibration    24          0.940              1.068              0.480
 Vibration    25          0.953              1.042              0.458
 Vibration    26          0.964              1.021              0.441

 Optimization completed.
    -- Stationary point found.
 Normal termination of Gaussian 16 at Fri May 10 16:11:56 2019.
