 Gaussian 16, Revision A.03,
 Gaussian 16:  ES64L-G16RevA.03 25-Dec-2016

 ----------------------------------------------------------------------
 #p freq ub3lyp/6-31g(d,p) scrf=(iefpcm,solvent=acetonitrile) guess=(mi
 x,always) empiricaldispersion=gd3
 ----------------------------------------------------------------------

 -------------------
 Title Card Required
 -------------------
 Symbolic Z-matrix:
 Charge =  0 Multiplicity = 1

                         Standard orientation:
 ---------------------------------------------------------------------
 Center     Atomic      Atomic             Coordinates (Angstroms)
 Number     Number       Type             X           Y           Z
 ---------------------------------------------------------------------
      1          6           0        0.752476    1.295565   -0.347139
      2          1           0        2.441950   -2.393640    1.831328
      3          8           0        1.833277    0.767688   -0.970268
      4          7           0        2.192457   -1.732581   -0.093638
      5          1           0        1.925392   -0.218694   -0.773976
      6          7           0        2.503793   -1.593832    1.208977
      7          1           0        3.284855   -0.974523    1.386686
      8          1           0        1.509367   -2.490854   -0.162122
      9          6           0        0.971253    2.687122    0.161137
     10          1           0        1.659059    3.211948   -0.509760
     11          1           0        0.043257    3.260661    0.220903
     12          1           0        1.433185    2.691397    1.159823
     13          6           0       -0.453145    0.557270   -0.207633
     14          6           0       -0.659161   -0.664583   -0.920365
     15          6           0       -1.509872    0.990063    0.651117
     16          6           0       -1.824568   -1.402416   -0.761581
     17          1           0        0.089312   -0.994112   -1.631887
     18          6           0       -2.667415    0.240539    0.797995
     19          1           0       -1.397160    1.907387    1.219714
     20          6           0       -2.839655   -0.966696    0.101463
     21          1           0       -1.952738   -2.322320   -1.326350
     22          1           0       -3.447680    0.593085    1.467553
     23          1           0       -3.748247   -1.548143    0.222894
 ---------------------------------------------------------------------

 SCF Done:  E(UB3LYP) =  -496.747815472     A.U. after   17 cycles

 The electronic state is 1-A.
 Alpha  occ. eigenvalues --  -19.14718 -14.39586 -14.36288 -10.22805 -10.19025
 Alpha  occ. eigenvalues --  -10.18466 -10.18426 -10.18045 -10.17952 -10.17944
 Alpha  occ. eigenvalues --  -10.17731  -1.02528  -0.99607  -0.84181  -0.76294
 Alpha  occ. eigenvalues --   -0.75074  -0.73540  -0.71659  -0.62144  -0.59136
 Alpha  occ. eigenvalues --   -0.57141  -0.55502  -0.52753  -0.48777  -0.47382
 Alpha  occ. eigenvalues --   -0.44842  -0.43352  -0.42190  -0.41326  -0.40359
 Alpha  occ. eigenvalues --   -0.40113  -0.38235  -0.37049  -0.35292  -0.34348
 Alpha  occ. eigenvalues --   -0.32824  -0.31786  -0.29694  -0.24575  -0.24352
 Alpha  occ. eigenvalues --   -0.20014
 Alpha virt. eigenvalues --   -0.05209   0.00982   0.05621   0.07404   0.09721
 Alpha virt. eigenvalues --    0.11140   0.12953   0.14267   0.14927   0.16459
 Alpha virt. eigenvalues --    0.17403   0.18061   0.18992   0.19798   0.21106

  Beta  occ. eigenvalues --  -19.14993 -14.38842 -14.34931 -10.23697 -10.18857
  Beta  occ. eigenvalues --  -10.18343 -10.18328 -10.18270 -10.18227 -10.18058
  Beta  occ. eigenvalues --  -10.17883  -1.03236  -0.97538  -0.84505  -0.77030
  Beta  occ. eigenvalues --   -0.73885  -0.72486  -0.71843  -0.63068  -0.59298
  Beta  occ. eigenvalues --   -0.57289  -0.55102  -0.52899  -0.47894  -0.47790
  Beta  occ. eigenvalues --   -0.45108  -0.43676  -0.43201  -0.41416  -0.40524
  Beta  occ. eigenvalues --   -0.38599  -0.37624  -0.36010  -0.34917  -0.33881
  Beta  occ. eigenvalues --   -0.32895  -0.32093  -0.29086  -0.25991  -0.25145
  Beta  occ. eigenvalues --   -0.14062
  Beta virt. eigenvalues --   -0.05526   0.00475   0.03138   0.07888   0.09763
  Beta virt. eigenvalues --    0.11424   0.12981   0.14282   0.14823   0.16091
  Beta virt. eigenvalues --    0.17376   0.17797   0.18520   0.19390   0.20935

 Mulliken charges and spin densities:
               1          2
     1  C    0.236686  -0.578797
     2  H    0.306857  -0.004344
     3  O   -0.589997  -0.075310
     4  N   -0.438990   0.678941
     5  H    0.373899  -0.012676
     6  N   -0.374704   0.325228
     7  H    0.311627  -0.007526
     8  H    0.272835  -0.023832
     9  C   -0.370078   0.049798
    10  H    0.122211  -0.013093
    11  H    0.120322  -0.005142
    12  H    0.124684  -0.037820
    13  C    0.100772   0.138411
    14  C   -0.158354  -0.223918
    15  C   -0.153646  -0.216239
    16  C   -0.107065   0.122309
    17  H    0.088039   0.010151
    18  C   -0.107781   0.117262
    19  H    0.089128   0.009541
    20  C   -0.118382  -0.256262
    21  H    0.091605  -0.004528
    22  H    0.091654  -0.004198
    23  H    0.088679   0.012043
 Sum of Mulliken charges =  -0.00000  -0.00000

 Dipole moment (field-independent basis, Debye):
    X=              1.9452    Y=             -3.0298    Z=              3.8155  Tot=              5.2461
 Quadrupole moment (field-independent basis, Debye-Ang):
   XX=            -60.2080   YY=            -54.3261   ZZ=            -63.8652
   XY=             -5.6007   XZ=              8.6651   YZ=             -0.9111

  Exact polarizability: 191.714  27.909 155.203 -14.834  20.282 101.456
 Approx polarizability: 213.525  38.377 174.241 -26.942  26.243 124.469

                      1                      2                      3
                      A                      A                      A
 Frequencies --     24.0583                47.4965                72.2892
 Red. masses --      3.9236                 3.5138                 1.5827
 Frc consts  --      0.0013                 0.0047                 0.0049
 IR Inten    --     12.6612                 6.3546                 0.0458

                      4                      5                      6
                      A                      A                      A
 Frequencies --     84.1133               108.7375               129.8236
 Red. masses --      1.6334                 3.4219                 3.7094
 Frc consts  --      0.0068                 0.0238                 0.0368
 IR Inten    --      0.8918                 4.2799                 8.1851

                      7                      8                      9
                      A                      A                      A
 Frequencies --    172.0430               198.9407               226.7916
 Red. masses --      1.6624                 2.4066                 3.9392
 Frc consts  --      0.0290                 0.0561                 0.1194
 IR Inten    --     35.8570                58.8736                15.6883

                     10                     11                     12
                      A                      A                      A
 Frequencies --    258.1902               360.6343               380.6561
 Red. masses --      3.7427                 3.7918                 4.2697
 Frc consts  --      0.1470                 0.2906                 0.3645
 IR Inten    --     33.6313                 1.8499                 2.6723

                     13                     14                     15
                      A                      A                      A
 Frequencies --    428.8140               476.6077               518.1814
 Red. masses --      3.1786                 4.4338                 3.3794
 Frc consts  --      0.3444                 0.5934                 0.5346
 IR Inten    --      0.3542                 7.7737                10.1357

                     16                     17                     18
                      A                      A                      A
 Frequencies --    549.8628               569.6234               626.8356
 Red. masses --      4.1054                 1.3246                 6.4088
 Frc consts  --      0.7313                 0.2532                 1.4837
 IR Inten    --     11.2536               148.9733                 0.3623

                     19                     20                     21
                      A                      A                      A
 Frequencies --    695.3449               710.9873               738.2305
 Red. masses --      1.7812                 1.1347                 4.9341
 Frc consts  --      0.5074                 0.3380                 1.5843
 IR Inten    --     68.0597               168.1557                15.1889

                     22                     23                     24
                      A                      A                      A
 Frequencies --    748.5411               831.4827               875.9922
 Red. masses --      1.8475                 1.2524                 1.3870
 Frc consts  --      0.6099                 0.5101                 0.6271
 IR Inten    --     58.8845                 2.0078                22.4161

                     25                     26                     27
                      A                      A                      A
 Frequencies --    942.6369               968.0994               982.5826
 Red. masses --      1.2442                 1.3112                 2.2541
 Frc consts  --      0.6514                 0.7240                 1.2822
 IR Inten    --     89.8878                 3.5360                58.9528

                     28                     29                     30
                      A                      A                      A
 Frequencies --    983.8297               999.8297              1022.6743
 Red. masses --      1.4471                 2.2596                 1.4491
 Frc consts  --      0.8253                 1.3309                 0.8929
 IR Inten    --      7.7968                16.6942                11.7827

                     31                     32                     33
                      A                      A                      A
 Frequencies --   1041.3400              1080.1472              1114.8840
 Red. masses --      2.2173                 2.0905                 1.6662
 Frc consts  --      1.4167                 1.4370                 1.2202
 IR Inten    --     22.2584                10.1291                20.9000

                     34                     35                     36
                      A                      A                      A
 Frequencies --   1164.5629              1183.0956              1212.6450
 Red. masses --      1.0896                 1.1231                 1.1858
 Frc consts  --      0.8706                 0.9262                 1.0274
 IR Inten    --     45.7981                 8.0144                14.6487

                     37                     38                     39
                      A                      A                      A
 Frequencies --   1265.8733              1285.9637              1332.8935
 Red. masses --      3.1990                 5.9782                 2.7240
 Frc consts  --      3.0203                 5.8248                 2.8513
 IR Inten    --    174.8206                67.4023                88.4581

                     40                     41                     42
                      A                      A                      A
 Frequencies --   1363.0688              1400.3613              1422.7177
 Red. masses --      1.7881                 1.5381                 1.7733
 Frc consts  --      1.9574                 1.7771                 2.1148
 IR Inten    --      1.7753                 2.2635                95.1418

                     43                     44                     45
                      A                      A                      A
 Frequencies --   1450.5678              1477.5025              1486.3405
 Red. masses --      1.4864                 1.3720                 1.3051
 Frc consts  --      1.8428                 1.7647                 1.6987
 IR Inten    --    108.8977                 2.6956                14.9980

                     46                     47                     48
                      A                      A                      A
 Frequencies --   1491.3753              1497.9033              1534.3968
 Red. masses --      1.3628                 1.3296                 2.2535
 Frc consts  --      1.7859                 1.7577                 3.1259
 IR Inten    --      5.4678                48.5349                 8.1199

                     49                     50                     51
                      A                      A                      A
 Frequencies --   1579.9608              1619.0151              1662.4210
 Red. masses --      4.0345                 4.8970                 1.1093
 Frc consts  --      5.9338                 7.5628                 1.8063
 IR Inten    --      4.0221                46.9201                37.2525

                     52                     53                     54
                      A                      A                      A
 Frequencies --   2908.5394              3000.5723              3079.6169
 Red. masses --      1.0765                 1.0531                 1.0827
 Frc consts  --      5.3657                 5.5863                 6.0500
 IR Inten    --   1004.1790                76.0375                32.9082

                     55                     56                     57
                      A                      A                      A
 Frequencies --   3131.2905              3171.6185              3176.6673
 Red. masses --      1.1014                 1.0855                 1.0887
 Frc consts  --      6.3628                 6.4333                 6.4732
 IR Inten    --     24.1778                11.5213                25.5545

                     58                     59                     60
                      A                      A                      A
 Frequencies --   3197.3914              3204.1969              3212.6507
 Red. masses --      1.0912                 1.0944                 1.0931
 Frc consts  --      6.5725                 6.6202                 6.6475
 IR Inten    --     43.4484                40.5981                 9.8422

                     61                     62                     63
                      A                      A                      A
 Frequencies --   3472.9048              3510.2193              3651.4800
 Red. masses --      1.0753                 1.0459                 1.1036
 Frc consts  --      7.6414                 7.5927                 8.6695
 IR Inten    --      0.1655                38.5616                43.6085

 - Thermochemistry -
 -------------------
 Temperature   298.150 Kelvin.  Pressure   1.00000 Atm.
 Atom     1 has atomic number  6 and mass  12.00000

 Molecular mass:   152.09496 amu.
 Principal axes and moments of inertia in atomic units:
                           1         2         3
     Eigenvalues --  1385.685372240.272153029.47666
           X            0.99996   0.00671   0.00650
           Y           -0.00684   0.99976   0.02076
           Z           -0.00636  -0.02081   0.99976
 This molecule is an asymmetric top.
 Rotational symmetry number  1.
 Warning -- assumption of classical behavior for rotation
           may cause significant error
 Rotational temperatures (Kelvin)      0.06251     0.03866     0.02859
 Rotational constants (GHZ):           1.30242     0.80559     0.59573
 Zero-point vibrational energy     497156.7 (Joules/Mol)
                                  118.82331 (Kcal/Mol)
 Warning -- explicit consideration of  17 degrees of freedom as
           vibrations may cause significant error
 Vibrational temperatures:     34.61    68.34   104.01   121.02   156.45
          (Kelvin)            186.79   247.53   286.23   326.30   371.48
                              518.87   547.68   616.97   685.73   745.55
                              791.13   819.56   901.88  1000.45  1022.95
                             1062.15  1076.98  1196.32  1260.36  1356.24
                             1392.88  1413.72  1415.51  1438.53  1471.40
                             1498.26  1554.09  1604.07  1675.55  1702.21
                             1744.73  1821.31  1850.21  1917.74  1961.15
                             2014.81  2046.97  2087.04  2125.80  2138.51
                             2145.76  2155.15  2207.65  2273.21  2329.40
                             2391.85  4184.74  4317.15  4430.88  4505.23
                             4563.25  4570.52  4600.33  4610.12  4622.29
                             4996.74  5050.42  5253.67

 Zero-point correction=                           0.189357 (Hartree/Particle)
 Thermal correction to Energy=                    0.201975
 Thermal correction to Enthalpy=                  0.202920
 Thermal correction to Gibbs Free Energy=         0.149005
 Sum of electronic and zero-point Energies=           -496.558458
 Sum of electronic and thermal Energies=              -496.545840
 Sum of electronic and thermal Enthalpies=            -496.544896
 Sum of electronic and thermal Free Energies=         -496.598810

                     E (Thermal)             CV                S
                      KCal/Mol        Cal/Mol-Kelvin    Cal/Mol-Kelvin
 Total                  126.742             44.774            113.473
 Electronic               0.000              0.000              0.000
 Translational            0.889              2.981             40.968
 Rotational               0.889              2.981             30.620
 Vibrational            124.964             38.812             41.884
 Vibration     1          0.593              1.985              6.267
 Vibration     2          0.595              1.979              4.919
 Vibration     3          0.598              1.967              4.090
 Vibration     4          0.601              1.960              3.793
 Vibration     5          0.606              1.942              3.291
 Vibration     6          0.612              1.923              2.949
 Vibration     7          0.626              1.877              2.413
 Vibration     8          0.637              1.841              2.143
 Vibration     9          0.650              1.800              1.904
 Vibration    10          0.667              1.749              1.674
 Vibration    11          0.735              1.553              1.119
 Vibration    12          0.750              1.511              1.037
 Vibration    13          0.790              1.408              0.863
 Vibration    14          0.833              1.302              0.719
 Vibration    15          0.873              1.210              0.614
 Vibration    16          0.905              1.140              0.544
 Vibration    17          0.926              1.097              0.505

 Normal termination of Gaussian 16 at Fri Jun 14 19:40:40 2019.
