 Gaussian 16, Revision A.03,
 Gaussian 16:  ES64L-G16RevA.03 25-Dec-2016

 ----------------------------------------------------------------------
 #p opt ub3lyp/6-31g(d,p) scrf=(iefpcm,solvent=acetonitrile) guess=(mix
 ,always) empiricaldispersion=gd3
 ----------------------------------------------------------------------

 -------------------
 Title Card Required
 -------------------
 Symbolic Z-matrix:
 Charge =  0 Multiplicity = 1

 SCF Done:  E(UB3LYP) =  -496.705072518     A.U. after   25 cycles
 SCF Done:  E(UB3LYP) =  -496.731494343     A.U. after   18 cycles
 SCF Done:  E(UB3LYP) =  -496.729266115     A.U. after   17 cycles
 SCF Done:  E(UB3LYP) =  -496.743349586     A.U. after   17 cycles
 SCF Done:  E(UB3LYP) =  -496.739620865     A.U. after   20 cycles
 SCF Done:  E(UB3LYP) =  -496.745807549     A.U. after   17 cycles
 SCF Done:  E(UB3LYP) =  -496.746389184     A.U. after   17 cycles
 SCF Done:  E(UB3LYP) =  -496.746115881     A.U. after   20 cycles
 SCF Done:  E(UB3LYP) =  -496.747289479     A.U. after   25 cycles
 SCF Done:  E(UB3LYP) =  -496.747447944     A.U. after   23 cycles
 SCF Done:  E(UB3LYP) =  -496.747805861     A.U. after   17 cycles
 SCF Done:  E(UB3LYP) =  -496.747799006     A.U. after   17 cycles
 SCF Done:  E(UB3LYP) =  -496.747813330     A.U. after   17 cycles
 SCF Done:  E(UB3LYP) =  -496.747814771     A.U. after   17 cycles
 SCF Done:  E(UB3LYP) =  -496.747812965     A.U. after   17 cycles
 SCF Done:  E(UB3LYP) =  -496.747815567     A.U. after   17 cycles
 SCF Done:  E(UB3LYP) =  -496.747815149     A.U. after   17 cycles
 SCF Done:  E(UB3LYP) =  -496.747815296     A.U. after   17 cycles
 SCF Done:  E(UB3LYP) =  -496.747815602     A.U. after   17 cycles
 SCF Done:  E(UB3LYP) =  -496.747815472     A.U. after   17 cycles
 Optimization completed.
    -- Stationary point found.

                         Standard orientation:
 ---------------------------------------------------------------------
 Center     Atomic      Atomic             Coordinates (Angstroms)
 Number     Number       Type             X           Y           Z
 ---------------------------------------------------------------------
      1          6           0       -0.752476    1.295565    0.347139
      2          1           0       -2.441950   -2.393640   -1.831328
      3          8           0       -1.833277    0.767688    0.970268
      4          7           0       -2.192457   -1.732581    0.093638
      5          1           0       -1.925392   -0.218694    0.773976
      6          7           0       -2.503793   -1.593832   -1.208977
      7          1           0       -3.284855   -0.974524   -1.386686
      8          1           0       -1.509367   -2.490854    0.162122
      9          6           0       -0.971254    2.687122   -0.161137
     10          1           0       -1.659060    3.211948    0.509760
     11          1           0       -0.043258    3.260661   -0.220903
     12          1           0       -1.433186    2.691397   -1.159823
     13          6           0        0.453145    0.557270    0.207633
     14          6           0        0.659161   -0.664583    0.920365
     15          6           0        1.509872    0.990063   -0.651117
     16          6           0        1.824568   -1.402416    0.761581
     17          1           0       -0.089312   -0.994112    1.631887
     18          6           0        2.667415    0.240540   -0.797995
     19          1           0        1.397160    1.907387   -1.219714
     20          6           0        2.839655   -0.966695   -0.101463
     21          1           0        1.952738   -2.322320    1.326350
     22          1           0        3.447680    0.593086   -1.467553
     23          1           0        3.748247   -1.548142   -0.222894
 ---------------------------------------------------------------------

 The electronic state is 1-A.
 Alpha  occ. eigenvalues --  -19.14718 -14.39586 -14.36288 -10.22805 -10.19025
 Alpha  occ. eigenvalues --  -10.18466 -10.18426 -10.18045 -10.17952 -10.17944
 Alpha  occ. eigenvalues --  -10.17731  -1.02528  -0.99607  -0.84181  -0.76294
 Alpha  occ. eigenvalues --   -0.75074  -0.73540  -0.71659  -0.62144  -0.59136
 Alpha  occ. eigenvalues --   -0.57141  -0.55502  -0.52753  -0.48777  -0.47382
 Alpha  occ. eigenvalues --   -0.44842  -0.43352  -0.42190  -0.41326  -0.40359
 Alpha  occ. eigenvalues --   -0.40113  -0.38235  -0.37049  -0.35292  -0.34348
 Alpha  occ. eigenvalues --   -0.32824  -0.31786  -0.29694  -0.24575  -0.24352
 Alpha  occ. eigenvalues --   -0.20014
 Alpha virt. eigenvalues --   -0.05209   0.00982   0.05621   0.07404   0.09721
 Alpha virt. eigenvalues --    0.11140   0.12953   0.14267   0.14927   0.16459
 Alpha virt. eigenvalues --    0.17403   0.18061   0.18992   0.19798   0.21106

  Beta  occ. eigenvalues --  -19.14993 -14.38842 -14.34931 -10.23697 -10.18857
  Beta  occ. eigenvalues --  -10.18343 -10.18328 -10.18270 -10.18227 -10.18058
  Beta  occ. eigenvalues --  -10.17883  -1.03236  -0.97538  -0.84505  -0.77030
  Beta  occ. eigenvalues --   -0.73885  -0.72486  -0.71843  -0.63068  -0.59298
  Beta  occ. eigenvalues --   -0.57289  -0.55102  -0.52899  -0.47894  -0.47790
  Beta  occ. eigenvalues --   -0.45108  -0.43676  -0.43201  -0.41416  -0.40524
  Beta  occ. eigenvalues --   -0.38599  -0.37624  -0.36010  -0.34917  -0.33881
  Beta  occ. eigenvalues --   -0.32895  -0.32093  -0.29086  -0.25991  -0.25145
  Beta  occ. eigenvalues --   -0.14062
  Beta virt. eigenvalues --   -0.05526   0.00475   0.03138   0.07888   0.09763
  Beta virt. eigenvalues --    0.11424   0.12981   0.14282   0.14823   0.16091
  Beta virt. eigenvalues --    0.17376   0.17797   0.18520   0.19390   0.20935

 Mulliken charges and spin densities:
               1          2
     1  C    0.236686  -0.578797
     2  H    0.306857  -0.004344
     3  O   -0.589997  -0.075310
     4  N   -0.438990   0.678941
     5  H    0.373899  -0.012676
     6  N   -0.374704   0.325227
     7  H    0.311627  -0.007526
     8  H    0.272835  -0.023832
     9  C   -0.370078   0.049798
    10  H    0.122211  -0.013093
    11  H    0.120322  -0.005142
    12  H    0.124684  -0.037820
    13  C    0.100772   0.138411
    14  C   -0.158354  -0.223917
    15  C   -0.153646  -0.216239
    16  C   -0.107065   0.122308
    17  H    0.088039   0.010151
    18  C   -0.107781   0.117262
    19  H    0.089128   0.009541
    20  C   -0.118382  -0.256262
    21  H    0.091605  -0.004528
    22  H    0.091654  -0.004198
    23  H    0.088679   0.012043
 Sum of Mulliken charges =  -0.00000  -0.00000

 Dipole moment (field-independent basis, Debye):
    X=             -1.9452    Y=             -3.0298    Z=             -3.8155  Tot=              5.2461
 Quadrupole moment (field-independent basis, Debye-Ang):
   XX=            -60.2080   YY=            -54.3261   ZZ=            -63.8652
   XY=              5.6007   XZ=              8.6651   YZ=              0.9111

 Normal termination of Gaussian 16 at Tue Jun 11 14:28:45 2019.
