 Gaussian 16, Revision A.03,
 Gaussian 16:  ES64L-G16RevA.03 25-Dec-2016

 ----------------------------------------------------------------------
 #p opt ub3lyp/6-31g(d,p) scrf=(iefpcm,solvent=acetonitrile) empiricald
 ispersion=gd3
 ----------------------------------------------------------------------

 -------------------
 Title Card Required
 -------------------
 Symbolic Z-matrix:
 Charge =  0 Multiplicity = 2

 SCF Done:  E(UB3LYP) =  -111.233019267     A.U. after   13 cycles
 SCF Done:  E(UB3LYP) =  -111.240113821     A.U. after   12 cycles
 SCF Done:  E(UB3LYP) =  -111.241474947     A.U. after   11 cycles
 SCF Done:  E(UB3LYP) =  -111.241782048     A.U. after   11 cycles
 SCF Done:  E(UB3LYP) =  -111.241817127     A.U. after   10 cycles
 SCF Done:  E(UB3LYP) =  -111.241818846     A.U. after    9 cycles
 Optimization completed.
    -- Stationary point found.

                         Standard orientation:
 ---------------------------------------------------------------------
 Center     Atomic      Atomic             Coordinates (Angstroms)
 Number     Number       Type             X           Y           Z
 ---------------------------------------------------------------------
      1          7           0        0.597293    0.023802   -0.078798
      2          1           0        1.135243   -0.794415    0.180567
      3          1           0        1.021320    0.898019    0.221973
      4          7           0       -0.742539   -0.152037    0.024328
      5          1           0       -1.139840    0.794042   -0.021246
 ---------------------------------------------------------------------

 The electronic state is 2-A.
 Alpha  occ. eigenvalues --  -14.37728 -14.33966  -0.97416  -0.73097  -0.53949
 Alpha  occ. eigenvalues --   -0.46421  -0.38254  -0.29306  -0.18223
 Alpha virt. eigenvalues --    0.08201   0.12163   0.16779   0.27375   0.64528
 Alpha virt. eigenvalues --    0.65924   0.68445   0.69649   0.71384   0.77477
 Alpha virt. eigenvalues --    0.85100   0.88442   0.92040   0.97133   1.23236

  Beta  occ. eigenvalues --  -14.37059 -14.32491  -0.95292  -0.70260  -0.53253
  Beta  occ. eigenvalues --   -0.45335  -0.32029  -0.27369
  Beta virt. eigenvalues --   -0.02897   0.08720   0.12777   0.17369   0.28794
  Beta virt. eigenvalues --    0.65221   0.68299   0.69861   0.70178   0.74883
  Beta virt. eigenvalues --    0.80529   0.85501   0.89161   0.93148   0.98234

 Mulliken charges and spin densities:
               1          2
     1  N   -0.410178   0.281950
     2  H    0.297590  -0.005082
     3  H    0.288394  -0.000444
     4  N   -0.426836   0.748554
     5  H    0.251031  -0.024978
 Sum of Mulliken charges =   0.00000   1.00000

 Dipole moment (field-independent basis, Debye):
    X=              2.3302    Y=              1.8672    Z=              0.8544  Tot=              3.1058
 Quadrupole moment (field-independent basis, Debye-Ang):
   XX=            -11.3301   YY=            -10.5583   ZZ=            -13.8490
   XY=             -2.2385   XZ=              1.1025   YZ=              0.1179

 Normal termination of Gaussian 16 at Mon Jun 10 11:12:20 2019.
