 Gaussian 16, Revision B.01,
 Gaussian 16:  ES64L-G16RevB.01 20-Dec-2017

 ----------------------------------------------------------------------
 #p ub3lyp/6-31g(d,p) scrf=(iefpcm,solvent=acetonitrile) empiricaldispe
 rsion=gd3
 ----------------------------------------------------------------------

 -------------------
 Title Card Required
 -------------------
 Symbolic Z-matrix:
 Charge =  0 Multiplicity = 2

                         Standard orientation:
 ---------------------------------------------------------------------
 Center     Atomic      Atomic             Coordinates (Angstroms)
 Number     Number       Type             X           Y           Z
 ---------------------------------------------------------------------
      1          7           0        0.629106    0.044756   -0.117920
      2          1           0        1.119049   -0.783897    0.152803
      3          1           0        0.935512    0.812175    0.445270
      4          7           0       -0.746062   -0.146357    0.062048
      5          1           0       -1.235870    0.682931   -0.206966
 ---------------------------------------------------------------------

 SCF Done:  E(UB3LYP) =  -111.233019267     A.U. after   13 cycles

 The electronic state is 2-A.
 Alpha  occ. eigenvalues --  -14.37249 -14.34682  -0.96664  -0.74104  -0.52741
 Alpha  occ. eigenvalues --   -0.46776  -0.39068  -0.27839  -0.21064
 Alpha virt. eigenvalues --    0.09255   0.12432   0.16591   0.23668   0.64417
 Alpha virt. eigenvalues --    0.66408   0.68206   0.68935   0.71335   0.79719
 Alpha virt. eigenvalues --    0.84770   0.89724   0.90928   0.99319   1.20443

  Beta  occ. eigenvalues --  -14.36757 -14.33101  -0.94630  -0.71122  -0.51940
  Beta  occ. eigenvalues --   -0.45856  -0.33806  -0.25315
  Beta virt. eigenvalues --   -0.05350   0.09657   0.13284   0.17090   0.25086
  Beta virt. eigenvalues --    0.65613   0.68089   0.69062   0.70422   0.76148
  Beta virt. eigenvalues --    0.81173   0.85674   0.90353   0.92104   1.00635

 Mulliken charges and spin densities:
               1          2
     1  N   -0.432714   0.197987
     2  H    0.295732  -0.006237
     3  H    0.288642   0.018388
     4  N   -0.416817   0.812008
     5  H    0.265157  -0.022145
 Sum of Mulliken charges =  -0.00000   1.00000

 Dipole moment (field-independent basis, Debye):
    X=              1.7149    Y=              1.5780    Z=              0.9295  Tot=              2.5090
 Quadrupole moment (field-independent basis, Debye-Ang):
   XX=            -11.2809   YY=            -11.2043   ZZ=            -13.4612
   XY=             -2.5731   XZ=              1.9775   YZ=              0.4569

 Normal termination of Gaussian 16 at Mon May 20 12:38:34 2019.
