 Gaussian 16, Revision A.03,
 Gaussian 16:  ES64L-G16RevA.03 25-Dec-2016

 ----------------------------------------------------------------------
 #p irc=(calcfc,maxpoints=15) ub3lyp/6-31g(d,p) scrf=(iefpcm,solvent=ac
 etonitrile) guess=(mix,always) empiricaldispersion=gd3
 ----------------------------------------------------------------------

 -------------------
 Title Card Required
 -------------------
 Symbolic Z-matrix:
 Charge =  0 Multiplicity = 1

 SCF Done:  E(UB3LYP) =  -881.659377969     A.U. after   24 cycles
 SCF Done:  E(UB3LYP) =  -881.659864368     A.U. after   34 cycles
 SCF Done:  E(UB3LYP) =  -881.659922623     A.U. after   34 cycles
 SCF Done:  E(UB3LYP) =  -881.659930625     A.U. after   33 cycles
 SCF Done:  E(UB3LYP) =  -881.661156848     A.U. after   27 cycles
 SCF Done:  E(UB3LYP) =  -881.661195393     A.U. after   26 cycles
 SCF Done:  E(UB3LYP) =  -881.662769085     A.U. after   25 cycles
 SCF Done:  E(UB3LYP) =  -881.662787339     A.U. after   25 cycles
 SCF Done:  E(UB3LYP) =  -881.664442330     A.U. after   24 cycles
 SCF Done:  E(UB3LYP) =  -881.666038888     A.U. after   24 cycles
 SCF Done:  E(UB3LYP) =  -881.700482010     A.U. after   20 cycles
 SCF Done:  E(UB3LYP) =  -881.700491900     A.U. after   20 cycles
 SCF Done:  E(UB3LYP) =  -881.703357274     A.U. after   19 cycles
 SCF Done:  E(UB3LYP) =  -881.706047685     A.U. after   19 cycles
 SCF Done:  E(UB3LYP) =  -881.708509974     A.U. after   19 cycles
 SCF Done:  E(UB3LYP) =  -881.710682315     A.U. after   19 cycles
 SCF Done:  E(UB3LYP) =  -881.710699482     A.U. after   19 cycles
 SCF Done:  E(UB3LYP) =  -881.712570935     A.U. after   18 cycles
 SCF Done:  E(UB3LYP) =  -881.712577174     A.U. after   19 cycles
 SCF Done:  E(UB3LYP) =  -881.714121784     A.U. after   17 cycles

                          Input orientation:
 ---------------------------------------------------------------------
 Center     Atomic      Atomic             Coordinates (Angstroms)
 Number     Number       Type             X           Y           Z
 ---------------------------------------------------------------------
      1          6           0       -0.066829   -0.666117    1.083554
      2          1           0       -3.583533   -1.888122   -1.892383
      3          6           0       -0.946444    0.152090   -0.110220
      4          8           0       -2.251191    0.273889    0.432935
      5          8           0       -0.883068   -1.779910    1.454616
      6          7           0       -4.194327   -1.381345   -0.239831
      7          1           0       -5.007190   -1.478230    0.390611
      8          7           0       -4.415677   -2.009116   -1.285166
      9          1           0       -1.773776   -1.396914    1.527258
     10          1           0       -2.888702   -0.375832    0.051969
     11          6           0        0.085054    0.236002    2.321757
     12          1           0        0.733891    1.095383    2.147058
     13          1           0       -0.901062    0.617897    2.599625
     14          1           0        0.484436   -0.349753    3.154297
     15          6           0       -0.992279   -0.687987   -1.398789
     16          1           0       -1.685047   -0.237932   -2.117310
     17          1           0       -0.014743   -0.780222   -1.871737
     18          1           0       -1.325102   -1.700003   -1.148596
     19          6           0        1.262303   -1.224542    0.571675
     20          6           0        1.330620   -2.509540    0.001691
     21          6           0        2.424746   -0.436334    0.541280
     22          6           0        2.490411   -2.957673   -0.634828
     23          1           0        0.453062   -3.144120    0.038070
     24          6           0        3.586107   -0.882106   -0.095535
     25          1           0        2.418442    0.555285    0.978072
     26          6           0        3.621540   -2.139839   -0.699480
     27          1           0        2.506728   -3.945900   -1.086149
     28          1           0        4.460502   -0.238114   -0.123908
     29          1           0        4.519757   -2.481568   -1.205511
     30          6           0       -0.396478    1.563260   -0.323932
     31          6           0       -0.939278    2.668783    0.357366
     32          6           0        0.759250    1.769767   -1.089847
     33          6           0       -0.309031    3.915426    0.321926
     34          1           0       -1.843064    2.532544    0.939059
     35          6           0        1.390523    3.014402   -1.127621
     36          1           0        1.204401    0.943723   -1.631791
     37          6           0        0.867285    4.091898   -0.411715
     38          1           0       -0.735382    4.748398    0.874275
     39          1           0        2.297676    3.136003   -1.712753
     40          1           0        1.364801    5.057192   -0.430559
 ---------------------------------------------------------------------

 Alpha  occ. eigenvalues --  -19.13986 -19.13279 -14.41900 -14.41477 -10.25097
 Alpha  occ. eigenvalues --  -10.24709 -10.19403 -10.19184 -10.18807 -10.18774
 Alpha  occ. eigenvalues --  -10.18741 -10.18725 -10.18714 -10.18660 -10.18629
 Alpha  occ. eigenvalues --  -10.18482 -10.18411 -10.18327 -10.17818 -10.16801
 Alpha  occ. eigenvalues --   -1.05835  -1.02952  -0.99929  -0.85269  -0.84772
 Alpha  occ. eigenvalues --   -0.78290  -0.75477  -0.74064  -0.73971  -0.72238
 Alpha  occ. eigenvalues --   -0.71746  -0.71500  -0.64034  -0.62326  -0.60113
 Alpha  occ. eigenvalues --   -0.59509  -0.57870  -0.55810  -0.51867  -0.51477
 Alpha  occ. eigenvalues --   -0.50442  -0.50361  -0.48373  -0.46403  -0.45918
 Alpha  occ. eigenvalues --   -0.44660  -0.44257  -0.43740  -0.43542  -0.42291
 Alpha  occ. eigenvalues --   -0.41740  -0.41665  -0.41360  -0.41016  -0.39942
 Alpha  occ. eigenvalues --   -0.38052  -0.37384  -0.36733  -0.36210  -0.36049
 Alpha  occ. eigenvalues --   -0.35081  -0.34011  -0.33592  -0.33434  -0.32330
 Alpha  occ. eigenvalues --   -0.31184  -0.28352  -0.26964  -0.26330  -0.25149
 Alpha  occ. eigenvalues --   -0.24516  -0.24044  -0.22720
 Alpha virt. eigenvalues --   -0.07703  -0.00730  -0.00576   0.00021   0.00769
 Alpha virt. eigenvalues --    0.07558   0.09332   0.09845   0.10351   0.12295
 Alpha virt. eigenvalues --    0.13231   0.13707   0.13770   0.14308   0.14930

  Beta  occ. eigenvalues --  -19.13986 -19.13279 -14.41900 -14.41477 -10.25097
  Beta  occ. eigenvalues --  -10.24709 -10.19403 -10.19184 -10.18807 -10.18774
  Beta  occ. eigenvalues --  -10.18741 -10.18725 -10.18714 -10.18660 -10.18629
  Beta  occ. eigenvalues --  -10.18482 -10.18411 -10.18327 -10.17818 -10.16801
  Beta  occ. eigenvalues --   -1.05835  -1.02952  -0.99929  -0.85269  -0.84772
  Beta  occ. eigenvalues --   -0.78290  -0.75477  -0.74064  -0.73971  -0.72238
  Beta  occ. eigenvalues --   -0.71746  -0.71500  -0.64034  -0.62326  -0.60113
  Beta  occ. eigenvalues --   -0.59509  -0.57870  -0.55810  -0.51867  -0.51477
  Beta  occ. eigenvalues --   -0.50442  -0.50361  -0.48373  -0.46403  -0.45918
  Beta  occ. eigenvalues --   -0.44660  -0.44257  -0.43740  -0.43542  -0.42291
  Beta  occ. eigenvalues --   -0.41740  -0.41665  -0.41360  -0.41016  -0.39942
  Beta  occ. eigenvalues --   -0.38052  -0.37384  -0.36733  -0.36210  -0.36049
  Beta  occ. eigenvalues --   -0.35081  -0.34011  -0.33592  -0.33434  -0.32330
  Beta  occ. eigenvalues --   -0.31184  -0.28352  -0.26964  -0.26330  -0.25149
  Beta  occ. eigenvalues --   -0.24516  -0.24044  -0.22720
  Beta virt. eigenvalues --   -0.07703  -0.00730  -0.00576   0.00021   0.00769
  Beta virt. eigenvalues --    0.07558   0.09332   0.09845   0.10351   0.12295
  Beta virt. eigenvalues --    0.13231   0.13707   0.13770   0.14308   0.14930

 Mulliken charges and spin densities:
               1          2
     1  C    0.235357  -0.000001
     2  H    0.287765  -0.000000
     3  C    0.228239   0.000001
     4  O   -0.635002  -0.000000
     5  O   -0.591046   0.000000
     6  N   -0.296597  -0.000001
     7  H    0.303984   0.000000
     8  N   -0.231830   0.000001
     9  H    0.306128  -0.000000
    10  H    0.384732   0.000000
    11  C   -0.332151   0.000000
    12  H    0.112541  -0.000000
    13  H    0.109338  -0.000000
    14  H    0.106013  -0.000000
    15  C   -0.366776  -0.000000
    16  H    0.116370   0.000000
    17  H    0.125959   0.000000
    18  H    0.112699   0.000000
    19  C    0.090958   0.000005
    20  C   -0.123877  -0.000005
    21  C   -0.127585  -0.000004
    22  C   -0.106143   0.000005
    23  H    0.101619   0.000000
    24  C   -0.111653   0.000004
    25  H    0.096270   0.000000
    26  C   -0.100163  -0.000005
    27  H    0.097379  -0.000000
    28  H    0.098412  -0.000000
    29  H    0.097889   0.000000
    30  C    0.092050  -0.000007
    31  C   -0.122747   0.000006
    32  C   -0.127268   0.000007
    33  C   -0.106421  -0.000006
    34  H    0.100734  -0.000000
    35  C   -0.111707  -0.000007
    36  H    0.096294  -0.000001
    37  C   -0.100745   0.000007
    38  H    0.096605   0.000000
    39  H    0.097321   0.000000
    40  H    0.097054  -0.000000
 Sum of Mulliken charges =  -0.00000   0.00000

 Dipole moment (field-independent basis, Debye):
    X=             -2.3278    Y=             -0.2535    Z=             -1.8709  Tot=              2.9972
 Quadrupole moment (field-independent basis, Debye-Ang):
   XX=            -99.6673   YY=           -117.0190   ZZ=           -118.2395
   XY=              7.0216   XZ=             -5.7320   YZ=              6.4278

  Exact polarizability:   0.000   0.000   0.000   0.000   0.000   0.000
 Approx polarizability: 310.495  21.520 323.510 -63.099  49.498 219.233

 Normal termination of Gaussian 16 at Wed Jun 12 12:46:28 2019.
