 Gaussian 16, Revision A.03,
 Gaussian 16:  ES64L-G16RevA.03 25-Dec-2016

 ----------------------------------------------------------------------
 #p freq ub3lyp/6-31g(d,p) scrf=(iefpcm,solvent=acetonitrile) guess=(mi
 x,always) empiricaldispersion=gd3
 ----------------------------------------------------------------------

 -------------------
 Title Card Required
 -------------------
 Symbolic Z-matrix:
 Charge =  0 Multiplicity = 1

                         Standard orientation:
 ---------------------------------------------------------------------
 Center     Atomic      Atomic             Coordinates (Angstroms)
 Number     Number       Type             X           Y           Z
 ---------------------------------------------------------------------
      1          6           0        0.841821   -1.037688    0.937036
      2          1           0       -4.117307   -2.540642   -1.951924
      3          6           0       -0.487664   -0.886483    0.073599
      4          8           0       -1.392130   -1.780780    0.741669
      5          8           0        1.123521   -2.442132    0.998926
      6          7           0       -3.787935   -1.233320   -0.708682
      7          1           0       -4.097516   -0.284995   -0.433070
      8          7           0       -4.455201   -1.595855   -1.691989
      9          1           0        0.250347   -2.852004    1.119022
     10          1           0       -2.232522   -1.786907    0.233798
     11          6           0        0.629302   -0.541193    2.377351
     12          1           0        0.406464    0.525440    2.431508
     13          1           0       -0.205626   -1.083736    2.825629
     14          1           0        1.534761   -0.741784    2.955443
     15          6           0       -0.270942   -1.405854   -1.357004
     16          1           0       -1.215167   -1.369392   -1.907049
     17          1           0        0.471011   -0.825355   -1.906519
     18          1           0        0.074981   -2.439660   -1.310029
     19          6           0        2.037991   -0.356821    0.275860
     20          6           0        2.933684   -1.100119   -0.506510
     21          6           0        2.267165    1.019995    0.418453
     22          6           0        4.019894   -0.486675   -1.132789
     23          1           0        2.771362   -2.165194   -0.616166
     24          6           0        3.350847    1.636217   -0.209986
     25          1           0        1.592560    1.625027    1.012370
     26          6           0        4.233089    0.885820   -0.989285
     27          1           0        4.700826   -1.083949   -1.732743
     28          1           0        3.504334    2.704467   -0.086784
     29          1           0        5.077980    1.364363   -1.475883
     30          6           0       -1.048959    0.538921    0.082268
     31          6           0       -2.014141    0.907636    1.032421
     32          6           0       -0.631413    1.506680   -0.843528
     33          6           0       -2.546534    2.197521    1.056976
     34          1           0       -2.349883    0.167612    1.749488
     35          6           0       -1.158618    2.799403   -0.818521
     36          1           0        0.118154    1.261116   -1.586233
     37          6           0       -2.120072    3.151360    0.130187
     38          1           0       -3.294973    2.455428    1.800808
     39          1           0       -0.817786    3.530113   -1.546327
     40          1           0       -2.533895    4.155248    0.145448
 ---------------------------------------------------------------------

 SCF Done:  E(UB3LYP) =  -881.724195655     A.U. after   18 cycles

 The electronic state is 1-A.
 Alpha  occ. eigenvalues --  -19.14026 -19.13702 -14.41117 -14.40723 -10.24810
 Alpha  occ. eigenvalues --  -10.24609 -10.19544 -10.19298 -10.19065 -10.19031
 Alpha  occ. eigenvalues --  -10.18967 -10.18881 -10.18810 -10.18759 -10.18708
 Alpha  occ. eigenvalues --  -10.18686 -10.18661 -10.18328 -10.17045 -10.16792
 Alpha  occ. eigenvalues --   -1.04771  -1.03191  -0.99932  -0.85604  -0.84990
 Alpha  occ. eigenvalues --   -0.78901  -0.75591  -0.74400  -0.74109  -0.72103
 Alpha  occ. eigenvalues --   -0.71722  -0.71135  -0.64100  -0.62097  -0.60295
 Alpha  occ. eigenvalues --   -0.59657  -0.58858  -0.55705  -0.52903  -0.50727
 Alpha  occ. eigenvalues --   -0.50313  -0.49012  -0.48492  -0.46042  -0.45789
 Alpha  occ. eigenvalues --   -0.44827  -0.44482  -0.44034  -0.43692  -0.41980
 Alpha  occ. eigenvalues --   -0.41812  -0.41751  -0.41151  -0.40741  -0.39568
 Alpha  occ. eigenvalues --   -0.38057  -0.37460  -0.36858  -0.36411  -0.36234
 Alpha  occ. eigenvalues --   -0.35251  -0.34708  -0.33864  -0.33473  -0.32934
 Alpha  occ. eigenvalues --   -0.31008  -0.27595  -0.27185  -0.25980  -0.25375
 Alpha  occ. eigenvalues --   -0.24825  -0.24193  -0.23595
 Alpha virt. eigenvalues --   -0.07002  -0.00825  -0.00595  -0.00240   0.00592
 Alpha virt. eigenvalues --    0.08545   0.09675   0.09835   0.10760   0.12065
 Alpha virt. eigenvalues --    0.13135   0.13333   0.13969   0.14132   0.14885

  Beta  occ. eigenvalues --  -19.14026 -19.13702 -14.41117 -14.40723 -10.24810
  Beta  occ. eigenvalues --  -10.24609 -10.19544 -10.19298 -10.19065 -10.19031
  Beta  occ. eigenvalues --  -10.18967 -10.18881 -10.18810 -10.18759 -10.18708
  Beta  occ. eigenvalues --  -10.18686 -10.18661 -10.18328 -10.17045 -10.16792
  Beta  occ. eigenvalues --   -1.04771  -1.03191  -0.99932  -0.85604  -0.84990
  Beta  occ. eigenvalues --   -0.78901  -0.75591  -0.74400  -0.74109  -0.72103
  Beta  occ. eigenvalues --   -0.71722  -0.71135  -0.64100  -0.62097  -0.60295
  Beta  occ. eigenvalues --   -0.59657  -0.58858  -0.55705  -0.52903  -0.50727
  Beta  occ. eigenvalues --   -0.50313  -0.49012  -0.48492  -0.46042  -0.45789
  Beta  occ. eigenvalues --   -0.44827  -0.44482  -0.44034  -0.43692  -0.41980
  Beta  occ. eigenvalues --   -0.41812  -0.41751  -0.41151  -0.40741  -0.39568
  Beta  occ. eigenvalues --   -0.38057  -0.37460  -0.36858  -0.36411  -0.36234
  Beta  occ. eigenvalues --   -0.35251  -0.34708  -0.33864  -0.33473  -0.32934
  Beta  occ. eigenvalues --   -0.31008  -0.27595  -0.27184  -0.25980  -0.25375
  Beta  occ. eigenvalues --   -0.24825  -0.24193  -0.23595
  Beta virt. eigenvalues --   -0.07002  -0.00825  -0.00595  -0.00240   0.00592
  Beta virt. eigenvalues --    0.08545   0.09675   0.09835   0.10760   0.12065
  Beta virt. eigenvalues --    0.13135   0.13333   0.13969   0.14132   0.14885

 Mulliken charges and spin densities:
               1          2
     1  C    0.249463   0.000000
     2  H    0.291475   0.000000
     3  C    0.220388  -0.000001
     4  O   -0.624814   0.000000
     5  O   -0.599146   0.000000
     6  N   -0.284054  -0.000000
     7  H    0.293457  -0.000000
     8  N   -0.246685   0.000000
     9  H    0.324146  -0.000000
    10  H    0.344820  -0.000000
    11  C   -0.324184   0.000000
    12  H    0.109384  -0.000000
    13  H    0.111859   0.000000
    14  H    0.106280  -0.000000
    15  C   -0.332020   0.000000
    16  H    0.105080  -0.000000
    17  H    0.115224  -0.000000
    18  H    0.110936   0.000000
    19  C    0.079865   0.000001
    20  C   -0.116555  -0.000001
    21  C   -0.123698  -0.000000
    22  C   -0.107937   0.000000
    23  H    0.102699   0.000000
    24  C   -0.113670   0.000001
    25  H    0.098759   0.000000
    26  C   -0.099150  -0.000001
    27  H    0.097217  -0.000000
    28  H    0.098625  -0.000000
    29  H    0.097651   0.000000
    30  C    0.085528   0.000006
    31  C   -0.138597  -0.000006
    32  C   -0.123229  -0.000006
    33  C   -0.104460   0.000006
    34  H    0.102907   0.000000
    35  C   -0.110902   0.000006
    36  H    0.099705   0.000000
    37  C   -0.098734  -0.000006
    38  H    0.100823  -0.000000
    39  H    0.101142  -0.000000
    40  H    0.100402   0.000000
 Sum of Mulliken charges =  -0.00000  -0.00000

 Dipole moment (field-independent basis, Debye):
    X=             -3.5448    Y=              1.3200    Z=             -1.8347  Tot=              4.2041
 Quadrupole moment (field-independent basis, Debye-Ang):
   XX=           -111.7495   YY=           -109.8551   ZZ=           -117.5414
   XY=              7.1976   XZ=             -6.3967   YZ=              5.7980

  Exact polarizability: 243.067  -8.953 272.082 -53.186   4.931 195.406
 Approx polarizability: 272.437  -8.355 329.529 -67.703   2.575 240.269

                      1                      2                      3
                      A                      A                      A
 Frequencies --     22.8466                32.3377                39.8109
 Red. masses --      4.9810                 5.4106                 4.4168
 Frc consts  --      0.0015                 0.0033                 0.0041
 IR Inten    --      0.2475                 0.3396                 0.2539

                      4                      5                      6
                      A                      A                      A
 Frequencies --     55.1691                61.6716                79.4654
 Red. masses --      3.3467                 3.2892                 3.8921
 Frc consts  --      0.0060                 0.0074                 0.0145
 IR Inten    --      0.0343                 1.1914                 0.3518

                      7                      8                      9
                      A                      A                      A
 Frequencies --    101.9399               110.2536               117.4488
 Red. masses --      4.0953                 3.9570                 3.9081
 Frc consts  --      0.0251                 0.0283                 0.0318
 IR Inten    --      0.9118                 2.2740                 2.7570

                     10                     11                     12
                      A                      A                      A
 Frequencies --    160.8566               231.2670               233.7925
 Red. masses --      4.1114                 1.8759                 3.3792
 Frc consts  --      0.0627                 0.0591                 0.1088
 IR Inten    --      3.8941                 2.4207                 0.1983

                     13                     14                     15
                      A                      A                      A
 Frequencies --    244.7980               252.3312               260.2541
 Red. masses --      3.7576                 2.1916                 3.6294
 Frc consts  --      0.1327                 0.0822                 0.1448
 IR Inten    --      2.1542                 2.5636                 4.7855

                     16                     17                     18
                      A                      A                      A
 Frequencies --    280.1236               289.7498               312.7687
 Red. masses --      1.2066                 1.6130                 3.0132
 Frc consts  --      0.0558                 0.0798                 0.1737
 IR Inten    --      0.9058                 1.7854                 2.5772

                     19                     20                     21
                      A                      A                      A
 Frequencies --    332.7574               359.2059               364.8587
 Red. masses --      2.8420                 3.5224                 4.0965
 Frc consts  --      0.1854                 0.2678                 0.3213
 IR Inten    --      1.2570                 1.4434                 6.0278

                     22                     23                     24
                      A                      A                      A
 Frequencies --    395.1969               420.4247               427.2558
 Red. masses --      4.4720                 2.9839                 3.0103
 Frc consts  --      0.4115                 0.3107                 0.3238
 IR Inten    --     13.8568                 0.8928                 0.1153

                     25                     26                     27
                      A                      A                      A
 Frequencies --    464.2896               469.1220               487.2009
 Red. masses --      3.7331                 2.9036                 5.7880
 Frc consts  --      0.4741                 0.3765                 0.8095
 IR Inten    --      4.5000                 6.6039                 8.1941

                     28                     29                     30
                      A                      A                      A
 Frequencies --    514.7692               536.0409               593.4837
 Red. masses --      3.5080                 1.1587                 4.0412
 Frc consts  --      0.5477                 0.1962                 0.8386
 IR Inten    --      3.0377               151.2299                19.0201

                     31                     32                     33
                      A                      A                      A
 Frequencies --    594.5740               632.9383               634.0654
 Red. masses --      3.4126                 6.3747                 6.3905
 Frc consts  --      0.7108                 1.5046                 1.5138
 IR Inten    --     41.0160                 0.1619                 0.2142

                     34                     35                     36
                      A                      A                      A
 Frequencies --    651.2339               693.9169               718.6115
 Red. masses --      4.6909                 4.9997                 1.7111
 Frc consts  --      1.1721                 1.4184                 0.5206
 IR Inten    --     20.3787                 1.9342                84.8240

                     37                     38                     39
                      A                      A                      A
 Frequencies --    719.2773               751.7081               773.7094
 Red. masses --      1.6550                 1.1267                 1.9946
 Frc consts  --      0.5045                 0.3751                 0.7035
 IR Inten    --     25.1210               141.5397                 5.6866

                     40                     41                     42
                      A                      A                      A
 Frequencies --    779.4281               813.7204               855.7220
 Red. masses --      2.3977                 2.5268                 2.1225
 Frc consts  --      0.8582                 0.9858                 0.9157
 IR Inten    --     47.6655                15.9309                 6.1852

                     43                     44                     45
                      A                      A                      A
 Frequencies --    867.0032               869.6351               932.9158
 Red. masses --      1.2612                 1.2652                 1.7870
 Frc consts  --      0.5586                 0.5637                 0.9163
 IR Inten    --      0.5086                 1.3785                12.0662

                     46                     47                     48
                      A                      A                      A
 Frequencies --    935.7495               949.5172               953.5185
 Red. masses --      1.6112                 1.6280                 2.1427
 Frc consts  --      0.8312                 0.8648                 1.1478
 IR Inten    --     25.4066                 6.5312                57.6027

                     49                     50                     51
                      A                      A                      A
 Frequencies --    984.7806               989.2174              1004.5037
 Red. masses --      1.3439                 1.3389                 1.2500
 Frc consts  --      0.7679                 0.7719                 0.7431
 IR Inten    --      0.0729                 0.7525                 0.8513

                     52                     53                     54
                      A                      A                      A
 Frequencies --   1007.6189              1015.0873              1015.5915
 Red. masses --      1.2562                 5.9255                 6.0396
 Frc consts  --      0.7515                 3.5974                 3.6703
 IR Inten    --      1.5309                 0.8386                 0.1771

                     55                     56                     57
                      A                      A                      A
 Frequencies --   1049.0659              1054.5619              1068.4117
 Red. masses --      2.7230                 2.5141                 2.4117
 Frc consts  --      1.7657                 1.6473                 1.6220
 IR Inten    --     40.5690                22.6787                16.6575

                     58                     59                     60
                      A                      A                      A
 Frequencies --   1092.2980              1099.9545              1112.5825
 Red. masses --      1.8124                 1.7825                 1.9099
 Frc consts  --      1.2741                 1.2707                 1.3929
 IR Inten    --     74.0395                14.4129                 9.7448

                     61                     62                     63
                      A                      A                      A
 Frequencies --   1118.5670              1145.8842              1154.2968
 Red. masses --      1.8038                 2.3094                 2.4250
 Frc consts  --      1.3297                 1.7866                 1.9037
 IR Inten    --     31.7077                13.6848                 1.6978

                     64                     65                     66
                      A                      A                      A
 Frequencies --   1173.2082              1190.3831              1190.7851
 Red. masses --      2.6012                 1.0990                 1.0982
 Frc consts  --      2.1095                 0.9176                 0.9175
 IR Inten    --    117.5499                 0.9097                 0.4876

                     67                     68                     69
                      A                      A                      A
 Frequencies --   1216.2903              1218.2151              1228.8138
 Red. masses --      1.1656                 1.1507                 2.3806
 Frc consts  --      1.0160                 1.0061                 2.1179
 IR Inten    --      5.1807                 3.5824               100.6176

                     70                     71                     72
                      A                      A                      A
 Frequencies --   1263.0629              1331.2095              1338.4740
 Red. masses --      3.9849                 1.0759                 2.7781
 Frc consts  --      3.7456                 1.1234                 2.9323
 IR Inten    --     23.9419               154.4749                 4.3414

                     73                     74                     75
                      A                      A                      A
 Frequencies --   1339.3540              1359.8417              1361.2207
 Red. masses --      2.9806                 1.1250                 1.9210
 Frc consts  --      3.1503                 1.2257                 2.0972
 IR Inten    --      1.9846               144.8444                 0.5107

                     76                     77                     78
                      A                      A                      A
 Frequencies --   1362.5217              1383.1494              1412.5046
 Red. masses --      1.6937                 1.4800                 1.2565
 Frc consts  --      1.8526                 1.6683                 1.4770
 IR Inten    --     14.9295                99.3719                22.9178

                     79                     80                     81
                      A                      A                      A
 Frequencies --   1419.0969              1433.4091              1484.4507
 Red. masses --      1.2467                 1.2458                 2.1986
 Frc consts  --      1.4793                 1.5081                 2.8545
 IR Inten    --     30.2170               119.0345                15.8487

                     82                     83                     84
                      A                      A                      A
 Frequencies --   1486.1121              1495.0421              1498.6673
 Red. masses --      2.2283                 1.0718                 1.0700
 Frc consts  --      2.8995                 1.4115                 1.4159
 IR Inten    --     20.8804                 6.0011                 9.2771

                     85                     86                     87
                      A                      A                      A
 Frequencies --   1513.6856              1515.6254              1535.7459
 Red. masses --      1.0600                 1.0704                 2.0933
 Frc consts  --      1.4309                 1.4487                 2.9088
 IR Inten    --      4.1307                 4.4589                16.7326

                     88                     89                     90
                      A                      A                      A
 Frequencies --   1539.0012              1595.1779              1632.2374
 Red. masses --      2.1535                 1.2420                 5.4466
 Frc consts  --      3.0053                 1.8620                 8.5495
 IR Inten    --     14.9510                 1.6744                 1.0598

                     91                     92                     93
                      A                      A                      A
 Frequencies --   1633.7018              1656.0377              1658.2984
 Red. masses --      5.5095                 5.5156                 5.5375
 Frc consts  --      8.6638                 8.9122                 8.9720
 IR Inten    --      0.3259                 2.7111                 3.6516

                     94                     95                     96
                      A                      A                      A
 Frequencies --   1678.6989              3065.2631              3067.6117
 Red. masses --     11.6617                 1.0354                 1.0364
 Frc consts  --     19.3623                 5.7319                 5.7463
 IR Inten    --      0.1305                30.9076                15.6196

                     97                     98                     99
                      A                      A                      A
 Frequencies --   3144.1674              3145.3564              3153.1173
 Red. masses --      1.1032                 1.1015                 1.1022
 Frc consts  --      6.4259                 6.4203                 6.4563
 IR Inten    --     17.1100                53.3629                33.3643

                    100                    101                    102
                      A                      A                      A
 Frequencies --   3159.3867              3177.1566              3179.1900
 Red. masses --      1.1026                 1.0856                 1.0856
 Frc consts  --      6.4844                 6.4566                 6.4651
 IR Inten    --     31.7489                 1.0181                 0.6279

                    103                    104                    105
                      A                      A                      A
 Frequencies --   3186.0249              3187.8555              3200.5847
 Red. masses --      1.0902                 1.0900                 1.0957
 Frc consts  --      6.5204                 6.5266                 6.6132
 IR Inten    --     27.5276                22.3763                50.8009

                    106                    107                    108
                      A                      A                      A
 Frequencies --   3202.5911              3218.8461              3220.2762
 Red. masses --      1.0952                 1.0919                 1.0923
 Frc consts  --      6.6180                 6.6653                 6.6741
 IR Inten    --     42.7538                26.0607                18.4336

                    109                    110                    111
                      A                      A                      A
 Frequencies --   3221.4632              3230.8161              3270.4856
 Red. masses --      1.0933                 1.0918                 1.0740
 Frc consts  --      6.6852                 6.7145                 6.7684
 IR Inten    --     10.2144                 7.4752                15.9521

                    112                    113                    114
                      A                      A                      A
 Frequencies --   3305.3345              3493.7945              3718.9066
 Red. masses --      1.0749                 1.0687                 1.0650
 Frc consts  --      6.9192                 7.6863                 8.6783
 IR Inten    --      6.7577              1097.8631               106.4411

 - Thermochemistry -
 -------------------
 Temperature   298.150 Kelvin.  Pressure   1.00000 Atm.
 Atom     1 has atomic number  6 and mass  12.00000

 Molecular mass:   272.15248 amu.
 Principal axes and moments of inertia in atomic units:
                           1         2         3
     Eigenvalues --  3663.083617007.809868497.76783
           X            0.99997   0.00161  -0.00700
           Y           -0.00152   0.99992   0.01262
           Z            0.00702  -0.01261   0.99990
 This molecule is an asymmetric top.
 Rotational symmetry number  1.
 Warning -- assumption of classical behavior for rotation
           may cause significant error
 Rotational temperatures (Kelvin)      0.02365     0.01236     0.01019
 Rotational constants (GHZ):           0.49268     0.25753     0.21238
 Zero-point vibrational energy     879156.0 (Joules/Mol)
                                  210.12333 (Kcal/Mol)
 Warning -- explicit consideration of  31 degrees of freedom as
           vibrations may cause significant error
 Vibrational temperatures:     32.87    46.53    57.28    79.38    88.73
          (Kelvin)            114.33   146.67   158.63   168.98   231.44
                              332.74   336.38   352.21   363.05   374.45
                              403.04   416.89   450.00   478.76   516.82
                              524.95   568.60   604.90   614.73   668.01
                              674.96   700.97   740.64   771.24   853.89
                              855.46   910.66   912.28   936.98   998.39
                             1033.92  1034.88  1081.54  1113.20  1121.42
                             1170.76  1231.19  1247.42  1251.21  1342.26
                             1346.33  1366.14  1371.90  1416.88  1423.26
                             1445.26  1449.74  1460.48  1461.21  1509.37
                             1517.28  1537.21  1571.57  1582.59  1600.76
                             1609.37  1648.67  1660.78  1687.98  1712.70
                             1713.27  1749.97  1752.74  1767.99  1817.27
                             1915.31  1925.77  1927.03  1956.51  1958.49
                             1960.36  1990.04  2032.28  2041.76  2062.36
                             2135.79  2138.18  2151.03  2156.25  2177.86
                             2180.65  2209.60  2214.28  2295.11  2348.43
                             2350.53  2382.67  2385.92  2415.27  4410.23
                             4413.61  4523.76  4525.47  4536.63  4545.65
                             4571.22  4574.15  4583.98  4586.61  4604.93
                             4607.81  4631.20  4633.26  4634.97  4648.42
                             4705.50  4755.64  5026.79  5350.68

 Zero-point correction=                           0.334853 (Hartree/Particle)
 Thermal correction to Energy=                    0.354831
 Thermal correction to Enthalpy=                  0.355775
 Thermal correction to Gibbs Free Energy=         0.285256
 Sum of electronic and zero-point Energies=           -881.389343
 Sum of electronic and thermal Energies=              -881.369365
 Sum of electronic and thermal Enthalpies=            -881.368421
 Sum of electronic and thermal Free Energies=         -881.438940

                     E (Thermal)             CV                S
                      KCal/Mol        Cal/Mol-Kelvin    Cal/Mol-Kelvin
 Total                  222.660             76.514            148.420
 Electronic               0.000              0.000              0.000
 Translational            0.889              2.981             42.702
 Rotational               0.889              2.981             33.744
 Vibrational            220.882             70.552             71.973
 Vibration     1          0.593              1.985              6.370
 Vibration     2          0.594              1.983              5.681
 Vibration     3          0.594              1.981              5.268
 Vibration     4          0.596              1.976              4.623
 Vibration     5          0.597              1.973              4.403
 Vibration     6          0.600              1.963              3.904
 Vibration     7          0.604              1.948              3.417
 Vibration     8          0.606              1.941              3.264
 Vibration     9          0.608              1.935              3.142
 Vibration    10          0.622              1.890              2.540
 Vibration    11          0.653              1.793              1.869
 Vibration    12          0.654              1.789              1.850
 Vibration    13          0.660              1.771              1.768
 Vibration    14          0.664              1.759              1.714
 Vibration    15          0.668              1.745              1.660
 Vibration    16          0.680              1.710              1.533
 Vibration    17          0.686              1.693              1.475
 Vibration    18          0.701              1.649              1.348
 Vibration    19          0.715              1.610              1.247
 Vibration    20          0.734              1.556              1.126
 Vibration    21          0.738              1.545              1.101
 Vibration    22          0.762              1.480              0.980
 Vibration    23          0.783              1.426              0.891
 Vibration    24          0.789              1.411              0.868
 Vibration    25          0.822              1.329              0.754
 Vibration    26          0.826              1.319              0.740
 Vibration    27          0.843              1.278              0.691
 Vibration    28          0.870              1.217              0.622
 Vibration    29          0.891              1.170              0.574
 Vibration    30          0.951              1.046              0.461
 Vibration    31          0.952              1.043              0.459

 Optimization completed.
    -- Stationary point found.

 1\1\GINC-BLG9134\Freq\UB3LYP\6-31G(d,p)\C16H20N2O2\RZK\15-Jun-2019\0\\
 #p freq ub3lyp/6-31g(d,p) scrf=(iefpcm,solvent=acetonitrile) guess=(mi
 x,always) empiricaldispersion=gd3\\Title Card Required\\0,1\C,0.841821
 ,-1.037688,0.937036\H,-4.117307,-2.540642,-1.951924\C,-0.487664,-0.886
 483,0.073599\O,-1.39213,-1.78078,0.741669\O,1.123521,-2.442132,0.99892
 6\N,-3.787935,-1.23332,-0.708682\H,-4.097516,-0.284995,-0.43307\N,-4.4
 55201,-1.595855,-1.691989\H,0.250347,-2.852004,1.119022\H,-2.232522,-1
 .786907,0.233798\C,0.629302,-0.541193,2.377351\H,0.406464,0.52544,2.43

 Normal termination of Gaussian 16 at Sat Jun 15 00:33:04 2019.
