 Gaussian 16, Revision A.03,
 Gaussian 16:  ES64L-G16RevA.03 25-Dec-2016

 ----------------------------------------------------------------------
 #p opt=(calcfc,ts,noeigentest) ub3lyp/6-31g(d,p) scrf=(iefpcm,solvent=
 acetonitrile) guess=(mix,always) empiricaldispersion=gd3
 ----------------------------------------------------------------------

 -------------------
 Title Card Required
 -------------------
 Symbolic Z-matrix:
 Charge =  0 Multiplicity = 1

 SCF Done:  E(UB3LYP) =  -881.658819668     A.U. after   25 cycles

  Exact polarizability:   0.000   0.000   0.000   0.000   0.000   0.000
 Approx polarizability:1109.878 430.196 643.934 191.537 166.535 338.184

 SCF Done:  E(UB3LYP) =  -881.659363982     A.U. after   25 cycles
 SCF Done:  E(UB3LYP) =  -881.659375609     A.U. after   24 cycles
 SCF Done:  E(UB3LYP) =  -881.659377097     A.U. after   24 cycles
 SCF Done:  E(UB3LYP) =  -881.659372717     A.U. after   23 cycles
 SCF Done:  E(UB3LYP) =  -881.659377918     A.U. after   24 cycles
 SCF Done:  E(UB3LYP) =  -881.659378032     A.U. after   24 cycles
 SCF Done:  E(UB3LYP) =  -881.659377969     A.U. after   24 cycles
 Optimization completed.
    -- Stationary point found.

                         Standard orientation:
 ---------------------------------------------------------------------
 Center     Atomic      Atomic             Coordinates (Angstroms)
 Number     Number       Type             X           Y           Z
 ---------------------------------------------------------------------
      1          6           0        0.040816   -0.778860    1.232213
      2          1           0       -3.565922   -1.894467   -1.880089
      3          6           0       -1.113422    0.265177   -0.246812
      4          8           0       -2.252548    0.234366    0.395707
      5          8           0       -0.879693   -1.781141    1.457223
      6          7           0       -4.163487   -1.354232   -0.200903
      7          1           0       -4.934704   -1.355113    0.464026
      8          7           0       -4.403411   -1.999988   -1.290296
      9          1           0       -1.750134   -1.326958    1.434747
     10          1           0       -3.314569   -0.694709   -0.015855
     11          6           0        0.089016    0.235655    2.350344
     12          1           0        0.731641    1.086234    2.125735
     13          1           0       -0.919604    0.614853    2.534882
     14          1           0        0.451688   -0.248863    3.265317
     15          6           0       -0.997745   -0.693196   -1.421704
     16          1           0       -1.668183   -0.348546   -2.218953
     17          1           0        0.007524   -0.772924   -1.833020
     18          1           0       -1.306637   -1.690509   -1.098273
     19          6           0        1.275972   -1.248483    0.605334
     20          6           0        1.333255   -2.524065   -0.001311
     21          6           0        2.431199   -0.437322    0.547379
     22          6           0        2.488171   -2.960841   -0.642126
     23          1           0        0.459466   -3.162755    0.044450
     24          6           0        3.583049   -0.878937   -0.098665
     25          1           0        2.425370    0.547119    0.998856
     26          6           0        3.620532   -2.140901   -0.698946
     27          1           0        2.508045   -3.946553   -1.098272
     28          1           0        4.456747   -0.234532   -0.132272
     29          1           0        4.520870   -2.482747   -1.200406
     30          6           0       -0.418318    1.581068   -0.338423
     31          6           0       -0.939739    2.682226    0.366285
     32          6           0        0.757198    1.767749   -1.089192
     33          6           0       -0.304384    3.920853    0.332278
     34          1           0       -1.852630    2.542707    0.933775
     35          6           0        1.393261    3.008707   -1.121485
     36          1           0        1.189447    0.941811   -1.640592
     37          6           0        0.868849    4.090561   -0.410030
     38          1           0       -0.725669    4.757932    0.881988
     39          1           0        2.301794    3.129429   -1.704491
     40          1           0        1.365416    5.055990   -0.437428
 ---------------------------------------------------------------------

 The electronic state is 1-A.
 Alpha  occ. eigenvalues --  -19.15910 -19.11650 -14.41613 -14.38789 -10.25597
 Alpha  occ. eigenvalues --  -10.25083 -10.19797 -10.19247 -10.19043 -10.19000
 Alpha  occ. eigenvalues --  -10.18944 -10.18926 -10.18925 -10.18878 -10.18824
 Alpha  occ. eigenvalues --  -10.18810 -10.18677 -10.18412 -10.17779 -10.17594
 Alpha  occ. eigenvalues --   -1.04270  -1.03156  -0.99158  -0.85431  -0.84975
 Alpha  occ. eigenvalues --   -0.77648  -0.75955  -0.74557  -0.74401  -0.74177
 Alpha  occ. eigenvalues --   -0.72180  -0.71608  -0.63652  -0.62368  -0.60259
 Alpha  occ. eigenvalues --   -0.59690  -0.58111  -0.56611  -0.53900  -0.51430
 Alpha  occ. eigenvalues --   -0.50437  -0.50347  -0.49076  -0.46297  -0.45475
 Alpha  occ. eigenvalues --   -0.45118  -0.44837  -0.44079  -0.43666  -0.42300
 Alpha  occ. eigenvalues --   -0.41797  -0.41686  -0.41528  -0.40587  -0.40303
 Alpha  occ. eigenvalues --   -0.38087  -0.37941  -0.37495  -0.36346  -0.36248
 Alpha  occ. eigenvalues --   -0.35095  -0.34584  -0.33769  -0.33699  -0.31849
 Alpha  occ. eigenvalues --   -0.31490  -0.29560  -0.26477  -0.25317  -0.25061
 Alpha  occ. eigenvalues --   -0.24632  -0.24225  -0.16001
 Alpha virt. eigenvalues --   -0.12510  -0.02548  -0.00615   0.00745   0.01371
 Alpha virt. eigenvalues --    0.07310   0.08169   0.09715   0.09950   0.10499
 Alpha virt. eigenvalues --    0.12480   0.13474   0.14051   0.14137   0.15119

  Beta  occ. eigenvalues --  -19.16026 -19.11964 -14.41280 -14.37993 -10.25620
  Beta  occ. eigenvalues --  -10.25457 -10.19737 -10.19244 -10.19062 -10.19039
  Beta  occ. eigenvalues --  -10.18965 -10.18940 -10.18936 -10.18882 -10.18826
  Beta  occ. eigenvalues --  -10.18816 -10.18759 -10.18431 -10.17792 -10.17597
  Beta  occ. eigenvalues --   -1.04602  -1.02084  -0.99639  -0.85532  -0.85022
  Beta  occ. eigenvalues --   -0.77905  -0.76014  -0.74488  -0.74243  -0.73169
  Beta  occ. eigenvalues --   -0.72302  -0.71717  -0.63931  -0.62459  -0.60310
  Beta  occ. eigenvalues --   -0.59723  -0.57933  -0.56720  -0.53935  -0.51516
  Beta  occ. eigenvalues --   -0.50740  -0.49763  -0.49465  -0.46641  -0.45578
  Beta  occ. eigenvalues --   -0.45170  -0.44931  -0.44133  -0.43694  -0.42396
  Beta  occ. eigenvalues --   -0.41841  -0.41705  -0.40757  -0.40505  -0.38348
  Beta  occ. eigenvalues --   -0.38125  -0.37847  -0.37611  -0.36597  -0.36362
  Beta  occ. eigenvalues --   -0.35246  -0.34650  -0.33851  -0.33712  -0.32584
  Beta  occ. eigenvalues --   -0.30857  -0.30082  -0.27072  -0.25546  -0.25254
  Beta  occ. eigenvalues --   -0.24800  -0.24417  -0.18048
  Beta virt. eigenvalues --   -0.06322  -0.03223  -0.00748   0.00583   0.00916
  Beta virt. eigenvalues --    0.06551   0.08077   0.09719   0.10087   0.10531
  Beta virt. eigenvalues --    0.12438   0.13453   0.14012   0.14085   0.15049

 Mulliken charges and spin densities:
               1          2
     1  C    0.201219  -0.231788
     2  H    0.277514  -0.013484
     3  C    0.289243  -0.024825
     4  O   -0.658025  -0.117641
     5  O   -0.556084  -0.038136
     6  N   -0.356667   0.152794
     7  H    0.316250  -0.005784
     8  N   -0.329316   0.390875
     9  H    0.317959   0.003243
    10  H    0.403989   0.000025
    11  C   -0.336336   0.006012
    12  H    0.123081   0.000062
    13  H    0.118842  -0.002907
    14  H    0.117869  -0.012635
    15  C   -0.369329  -0.003310
    16  H    0.123195  -0.004587
    17  H    0.123997   0.000704
    18  H    0.115566  -0.001007
    19  C    0.111408   0.054097
    20  C   -0.125044  -0.067601
    21  C   -0.129231  -0.065969
    22  C   -0.103291   0.035857
    23  H    0.105393   0.002922
    24  C   -0.110194   0.036028
    25  H    0.099795   0.002802
    26  C   -0.100895  -0.073527
    27  H    0.100050  -0.001299
    28  H    0.101198  -0.001271
    29  H    0.100386   0.003273
    30  C    0.104504   0.010342
    31  C   -0.125489  -0.017302
    32  C   -0.131758  -0.016243
    33  C   -0.103236   0.008244
    34  H    0.099356   0.000885
    35  C   -0.111337   0.009052
    36  H    0.099469   0.000648
    37  C   -0.100741  -0.018688
    38  H    0.098112  -0.000346
    39  H    0.099511  -0.000326
    40  H    0.099070   0.000810
 Sum of Mulliken charges =  -0.00000   0.00000

 Dipole moment (field-independent basis, Debye):
    X=              0.0385    Y=              0.6869    Z=             -0.6551  Tot=              0.9500
 Quadrupole moment (field-independent basis, Debye-Ang):
   XX=           -108.1458   YY=           -117.5650   ZZ=           -117.1899
   XY=              1.5306   XZ=             -9.1437   YZ=              4.6278

 Normal termination of Gaussian 16 at Tue Jun 11 21:09:42 2019.
