 Gaussian 16, Revision A.03,
 Gaussian 16:  ES64L-G16RevA.03 25-Dec-2016

 ----------------------------------------------------------------------
 #p freq ub3lyp/6-31g(d,p) scrf=(iefpcm,solvent=acetonitrile) guess=(mi
 x,always) empiricaldispersion=gd3
 ----------------------------------------------------------------------

 -------------------
 Title Card Required
 -------------------
 Symbolic Z-matrix:
 Charge =  0 Multiplicity = 1

                         Standard orientation:
 ---------------------------------------------------------------------
 Center     Atomic      Atomic             Coordinates (Angstroms)
 Number     Number       Type             X           Y           Z
 ---------------------------------------------------------------------
      1          6           0        0.040816   -0.778860    1.232213
      2          1           0       -3.565922   -1.894467   -1.880089
      3          6           0       -1.113422    0.265177   -0.246812
      4          8           0       -2.252548    0.234366    0.395707
      5          8           0       -0.879693   -1.781141    1.457223
      6          7           0       -4.163487   -1.354232   -0.200903
      7          1           0       -4.934704   -1.355113    0.464026
      8          7           0       -4.403411   -1.999988   -1.290296
      9          1           0       -1.750134   -1.326958    1.434747
     10          1           0       -3.314569   -0.694709   -0.015855
     11          6           0        0.089016    0.235655    2.350344
     12          1           0        0.731641    1.086234    2.125735
     13          1           0       -0.919604    0.614853    2.534882
     14          1           0        0.451688   -0.248863    3.265317
     15          6           0       -0.997745   -0.693196   -1.421704
     16          1           0       -1.668183   -0.348546   -2.218953
     17          1           0        0.007524   -0.772924   -1.833020
     18          1           0       -1.306637   -1.690509   -1.098273
     19          6           0        1.275972   -1.248483    0.605334
     20          6           0        1.333255   -2.524065   -0.001311
     21          6           0        2.431199   -0.437322    0.547379
     22          6           0        2.488171   -2.960841   -0.642126
     23          1           0        0.459466   -3.162755    0.044450
     24          6           0        3.583049   -0.878937   -0.098665
     25          1           0        2.425370    0.547119    0.998856
     26          6           0        3.620532   -2.140901   -0.698946
     27          1           0        2.508045   -3.946553   -1.098272
     28          1           0        4.456747   -0.234532   -0.132272
     29          1           0        4.520870   -2.482747   -1.200406
     30          6           0       -0.418318    1.581068   -0.338423
     31          6           0       -0.939739    2.682226    0.366285
     32          6           0        0.757198    1.767749   -1.089192
     33          6           0       -0.304384    3.920853    0.332278
     34          1           0       -1.852630    2.542707    0.933775
     35          6           0        1.393261    3.008707   -1.121485
     36          1           0        1.189447    0.941811   -1.640592
     37          6           0        0.868849    4.090561   -0.410030
     38          1           0       -0.725669    4.757932    0.881988
     39          1           0        2.301794    3.129429   -1.704491
     40          1           0        1.365416    5.055990   -0.437428
 ---------------------------------------------------------------------

 SCF Done:  E(UB3LYP) =  -881.659377969     A.U. after   24 cycles

 The electronic state is 1-A.
 Alpha  occ. eigenvalues --  -19.15910 -19.11650 -14.41613 -14.38789 -10.25597
 Alpha  occ. eigenvalues --  -10.25083 -10.19797 -10.19247 -10.19043 -10.19000
 Alpha  occ. eigenvalues --  -10.18944 -10.18926 -10.18925 -10.18878 -10.18824
 Alpha  occ. eigenvalues --  -10.18810 -10.18677 -10.18412 -10.17779 -10.17594
 Alpha  occ. eigenvalues --   -1.04270  -1.03156  -0.99158  -0.85431  -0.84975
 Alpha  occ. eigenvalues --   -0.77648  -0.75955  -0.74557  -0.74401  -0.74177
 Alpha  occ. eigenvalues --   -0.72180  -0.71608  -0.63652  -0.62368  -0.60259
 Alpha  occ. eigenvalues --   -0.59690  -0.58111  -0.56611  -0.53900  -0.51430
 Alpha  occ. eigenvalues --   -0.50437  -0.50347  -0.49076  -0.46297  -0.45475
 Alpha  occ. eigenvalues --   -0.45118  -0.44837  -0.44079  -0.43666  -0.42300
 Alpha  occ. eigenvalues --   -0.41797  -0.41686  -0.41528  -0.40587  -0.40303
 Alpha  occ. eigenvalues --   -0.38087  -0.37941  -0.37495  -0.36346  -0.36248
 Alpha  occ. eigenvalues --   -0.35095  -0.34584  -0.33769  -0.33699  -0.31849
 Alpha  occ. eigenvalues --   -0.31490  -0.29560  -0.26477  -0.25317  -0.25061
 Alpha  occ. eigenvalues --   -0.24632  -0.24225  -0.16001
 Alpha virt. eigenvalues --   -0.12510  -0.02548  -0.00615   0.00745   0.01371
 Alpha virt. eigenvalues --    0.07310   0.08169   0.09715   0.09950   0.10499
 Alpha virt. eigenvalues --    0.12480   0.13474   0.14051   0.14137   0.15119

  Beta  occ. eigenvalues --  -19.16026 -19.11964 -14.41280 -14.37993 -10.25620
  Beta  occ. eigenvalues --  -10.25457 -10.19737 -10.19244 -10.19062 -10.19039
  Beta  occ. eigenvalues --  -10.18965 -10.18940 -10.18936 -10.18882 -10.18826
  Beta  occ. eigenvalues --  -10.18816 -10.18759 -10.18431 -10.17792 -10.17597
  Beta  occ. eigenvalues --   -1.04602  -1.02083  -0.99639  -0.85532  -0.85022
  Beta  occ. eigenvalues --   -0.77905  -0.76014  -0.74488  -0.74243  -0.73169
  Beta  occ. eigenvalues --   -0.72302  -0.71717  -0.63931  -0.62459  -0.60310
  Beta  occ. eigenvalues --   -0.59723  -0.57933  -0.56720  -0.53935  -0.51516
  Beta  occ. eigenvalues --   -0.50740  -0.49763  -0.49465  -0.46641  -0.45578
  Beta  occ. eigenvalues --   -0.45170  -0.44931  -0.44133  -0.43694  -0.42396
  Beta  occ. eigenvalues --   -0.41841  -0.41705  -0.40757  -0.40505  -0.38348
  Beta  occ. eigenvalues --   -0.38125  -0.37847  -0.37611  -0.36597  -0.36362
  Beta  occ. eigenvalues --   -0.35246  -0.34650  -0.33851  -0.33712  -0.32584
  Beta  occ. eigenvalues --   -0.30857  -0.30082  -0.27072  -0.25546  -0.25254
  Beta  occ. eigenvalues --   -0.24800  -0.24417  -0.18048
  Beta virt. eigenvalues --   -0.06322  -0.03223  -0.00748   0.00583   0.00916
  Beta virt. eigenvalues --    0.06551   0.08077   0.09719   0.10087   0.10531
  Beta virt. eigenvalues --    0.12438   0.13453   0.14012   0.14085   0.15049

 Mulliken charges and spin densities:
               1          2
     1  C    0.201219  -0.231789
     2  H    0.277513  -0.013484
     3  C    0.289243  -0.024826
     4  O   -0.658024  -0.117642
     5  O   -0.556084  -0.038136
     6  N   -0.356668   0.152796
     7  H    0.316250  -0.005784
     8  N   -0.329317   0.390878
     9  H    0.317959   0.003243
    10  H    0.403989   0.000025
    11  C   -0.336337   0.006012
    12  H    0.123081   0.000062
    13  H    0.118842  -0.002907
    14  H    0.117869  -0.012635
    15  C   -0.369329  -0.003310
    16  H    0.123195  -0.004587
    17  H    0.123997   0.000704
    18  H    0.115566  -0.001007
    19  C    0.111408   0.054098
    20  C   -0.125044  -0.067602
    21  C   -0.129231  -0.065969
    22  C   -0.103291   0.035858
    23  H    0.105393   0.002922
    24  C   -0.110194   0.036029
    25  H    0.099795   0.002802
    26  C   -0.100895  -0.073527
    27  H    0.100050  -0.001299
    28  H    0.101198  -0.001271
    29  H    0.100386   0.003273
    30  C    0.104504   0.010342
    31  C   -0.125490  -0.017302
    32  C   -0.131758  -0.016243
    33  C   -0.103236   0.008244
    34  H    0.099356   0.000885
    35  C   -0.111337   0.009052
    36  H    0.099469   0.000648
    37  C   -0.100741  -0.018688
    38  H    0.098112  -0.000346
    39  H    0.099511  -0.000326
    40  H    0.099070   0.000810
 Sum of Mulliken charges =  -0.00000   0.00000

 Dipole moment (field-independent basis, Debye):
    X=              0.0386    Y=              0.6869    Z=             -0.6550  Tot=              0.9500
 Quadrupole moment (field-independent basis, Debye-Ang):
   XX=           -108.1460   YY=           -117.5650   ZZ=           -117.1899
   XY=              1.5304   XZ=             -9.1438   YZ=              4.6278

  Exact polarizability:1052.961 246.308 420.353 125.231  85.542 231.533
 Approx polarizability:1246.683 290.286 482.819 192.715 120.193 312.640

 ******    1 imaginary frequencies (negative Signs) ******

                      1                      2                      3
                      A                      A                      A
 Frequencies --   -953.8762                21.5188                25.6770
 Red. masses --      4.1840                 7.0224                 5.0358
 Frc consts  --      2.2430                 0.0019                 0.0020
 IR Inten    --  46042.8262                 0.3145                 0.4853

                      4                      5                      6
                      A                      A                      A
 Frequencies --     54.2057                62.7413                71.5964
 Red. masses --      4.3240                 4.5379                 3.8515
 Frc consts  --      0.0075                 0.0105                 0.0116
 IR Inten    --      0.1824                 0.4358                 4.8137

                      7                      8                      9
                      A                      A                      A
 Frequencies --     82.7708                97.8592               115.5795
 Red. masses --      2.7216                 3.5348                 4.1863
 Frc consts  --      0.0110                 0.0199                 0.0329
 IR Inten    --      2.2245                 0.9638                 2.3664

                     10                     11                     12
                      A                      A                      A
 Frequencies --    165.7377               214.7462               223.3021
 Red. masses --      4.8883                 4.2763                 2.4508
 Frc consts  --      0.0791                 0.1162                 0.0720
 IR Inten    --      9.6970                72.9137                15.9577

                     13                     14                     15
                      A                      A                      A
 Frequencies --    234.9894               245.2619               255.7787
 Red. masses --      3.3846                 3.0089                 3.1121
 Frc consts  --      0.1101                 0.1066                 0.1200
 IR Inten    --     33.2746                12.1781                10.8675

                     16                     17                     18
                      A                      A                      A
 Frequencies --    261.1133               268.3639               274.0937
 Red. masses --      3.6769                 2.7654                 1.7861
 Frc consts  --      0.1477                 0.1173                 0.0791
 IR Inten    --     12.5981                 3.7795                 8.8744

                     19                     20                     21
                      A                      A                      A
 Frequencies --    298.4557               312.6126               363.4498
 Red. masses --      3.3762                 1.2761                 2.3021
 Frc consts  --      0.1772                 0.0735                 0.1792
 IR Inten    --    228.7689                 9.0107                60.6800

                     22                     23                     24
                      A                      A                      A
 Frequencies --    371.4836               395.3618               418.3963
 Red. masses --      2.1760                 3.1179                 2.9964
 Frc consts  --      0.1769                 0.2871                 0.3090
 IR Inten    --      8.7987                72.5910                 0.3704

                     25                     26                     27
                      A                      A                      A
 Frequencies --    428.8869               459.5593               479.5181
 Red. masses --      2.9900                 3.3442                 3.7161
 Frc consts  --      0.3240                 0.4161                 0.5034
 IR Inten    --      0.8202                87.4850                26.0003

                     28                     29                     30
                      A                      A                      A
 Frequencies --    485.6124               529.8392               552.4157
 Red. masses --      4.8750                 3.7600                 3.6367
 Frc consts  --      0.6773                 0.6219                 0.6539
 IR Inten    --    217.6657                52.2315                26.4125

                     31                     32                     33
                      A                      A                      A
 Frequencies --    569.4684               615.6573               626.1073
 Red. masses --      2.4812                 1.5892                 3.3166
 Frc consts  --      0.4741                 0.3549                 0.7660
 IR Inten    --    171.2687               332.5424               123.2660

                     34                     35                     36
                      A                      A                      A
 Frequencies --    630.4823               631.6815               704.8423
 Red. masses --      5.6461                 6.2127                 1.7419
 Frc consts  --      1.3224                 1.4606                 0.5099
 IR Inten    --     16.0118                 2.5653                55.3433

                     37                     38                     39
                      A                      A                      A
 Frequencies --    709.9152               722.7036               756.2738
 Red. masses --      1.9336                 3.5849                 4.0823
 Frc consts  --      0.5742                 1.1032                 1.3757
 IR Inten    --     18.0448               783.8180               539.2067

                     40                     41                     42
                      A                      A                      A
 Frequencies --    773.9493               782.4237               841.4907
 Red. masses --      2.0872                 1.9528                 1.8352
 Frc consts  --      0.7366                 0.7044                 0.7657
 IR Inten    --    301.2630               111.4577              5407.9883

                     43                     44                     45
                      A                      A                      A
 Frequencies --    853.1974               860.9678               924.9974
 Red. masses --      1.2533                 1.2489                 1.4072
 Frc consts  --      0.5375                 0.5454                 0.7094
 IR Inten    --     13.4848                 0.0811                 5.8002

                     46                     47                     48
                      A                      A                      A
 Frequencies --    932.6076               942.0503               966.9800
 Red. masses --      1.3860                 1.1878                 2.3655
 Frc consts  --      0.7103                 0.6211                 1.3032
 IR Inten    --     21.8268               387.7348                52.0064

                     49                     50                     51
                      A                      A                      A
 Frequencies --    978.8028               982.6357              1000.6524
 Red. masses --      1.3410                 1.3457                 1.3018
 Frc consts  --      0.7570                 0.7656                 0.7680
 IR Inten    --      2.4944                 1.0007                95.6686

                     52                     53                     54
                      A                      A                      A
 Frequencies --   1003.2875              1005.9805              1007.1174
 Red. masses --      1.2838                 3.0526                 2.5404
 Frc consts  --      0.7614                 1.8201                 1.5182
 IR Inten    --     67.6508               167.6802               548.2091

                     55                     56                     57
                      A                      A                      A
 Frequencies --   1011.6115              1048.2585              1050.1404
 Red. masses --      4.8316                 2.1538                 2.4462
 Frc consts  --      2.9132                 1.3944                 1.5894
 IR Inten    --    121.4534                60.6302                53.2760

                     58                     59                     60
                      A                      A                      A
 Frequencies --   1057.7670              1070.0645              1088.0063
 Red. masses --      1.6325                 1.1085                 1.8016
 Frc consts  --      1.0761                 0.7478                 1.2565
 IR Inten    --     94.9137                11.8940               639.7820

                     61                     62                     63
                      A                      A                      A
 Frequencies --   1093.2882              1107.6934              1111.6828
 Red. masses --      2.1084                 1.7562                 1.6847
 Frc consts  --      1.4848                 1.2696                 1.2267
 IR Inten    --    564.3540               181.8618                47.9679

                     64                     65                     66
                      A                      A                      A
 Frequencies --   1130.6464              1188.5296              1190.5620
 Red. masses --      1.6309                 1.1006                 1.1046
 Frc consts  --      1.2284                 0.9160                 0.9225
 IR Inten    --   2123.9199                 0.8964                 0.9439

                     67                     68                     69
                      A                      A                      A
 Frequencies --   1210.9624              1214.4373              1229.2297
 Red. masses --      1.1481                 1.1721                 3.3709
 Frc consts  --      0.9920                 1.0185                 3.0010
 IR Inten    --     23.0873                16.9183                73.2031

                     70                     71                     72
                      A                      A                      A
 Frequencies --   1240.2365              1285.7283              1294.3842
 Red. masses --      1.4227                 3.0812                 2.2354
 Frc consts  --      1.2893                 3.0010                 2.2067
 IR Inten    --    191.0483                26.5921              1740.6857

                     73                     74                     75
                      A                      A                      A
 Frequencies --   1337.7197              1345.3087              1361.3945
 Red. masses --      2.4359                 2.4881                 2.3193
 Frc consts  --      2.5682                 2.6531                 2.5326
 IR Inten    --    551.0177                81.8392                 0.7465

                     76                     77                     78
                      A                      A                      A
 Frequencies --   1365.7802              1376.4917              1404.1283
 Red. masses --      2.0891                 3.2263                 1.2541
 Frc consts  --      2.2960                 3.6017                 1.4567
 IR Inten    --      0.1074              2892.2596                35.1518

                     79                     80                     81
                      A                      A                      A
 Frequencies --   1414.5563              1421.5722              1483.2336
 Red. masses --      1.3545                 1.7219                 1.9942
 Frc consts  --      1.5969                 2.0502                 2.5849
 IR Inten    --    151.5340                94.0270                 6.2063

                     82                     83                     84
                      A                      A                      A
 Frequencies --   1486.8224              1491.1694              1498.5523
 Red. masses --      2.2954                 1.1700                 1.0690
 Frc consts  --      2.9897                 1.5328                 1.4144
 IR Inten    --     30.4221                23.2349                13.2044

                     85                     86                     87
                      A                      A                      A
 Frequencies --   1501.1906              1512.0509              1521.3238
 Red. masses --      1.0824                 1.2379                 1.3469
 Frc consts  --      1.4372                 1.6676                 1.8366
 IR Inten    --     13.4776                 8.0649               165.0293

                     88                     89                     90
                      A                      A                      A
 Frequencies --   1533.5351              1535.7419              1615.4443
 Red. masses --      1.8580                 2.0423                 4.9829
 Frc consts  --      2.5744                 2.8380                 7.6616
 IR Inten    --     20.9560                 5.6784                 1.8172

                     91                     92                     93
                      A                      A                      A
 Frequencies --   1625.1232              1642.3623              1648.2180
 Red. masses --      5.2395                 5.2886                 5.4381
 Frc consts  --      8.1529                 8.4048                 8.7042
 IR Inten    --      8.7872                21.6619                 9.5415

                     94                     95                     96
                      A                      A                      A
 Frequencies --   1757.5429              1988.8154              3034.7413
 Red. masses --      1.0879                 1.3233                 1.0449
 Frc consts  --      1.9800                 3.0839                 5.6699
 IR Inten    --    470.2485              8814.0044                27.6480

                     97                     98                     99
                      A                      A                      A
 Frequencies --   3035.9223              3113.4837              3115.1055
 Red. masses --      1.0447                 1.0943                 1.0948
 Frc consts  --      5.6733                 6.2502                 6.2593
 IR Inten    --    127.5122                12.4686                25.8677

                    100                    101                    102
                      A                      A                      A
 Frequencies --   3162.9985              3165.1759              3177.7261
 Red. masses --      1.0995                 1.0987                 1.0857
 Frc consts  --      6.4810                 6.4850                 6.4595
 IR Inten    --     21.1007                14.2874                 7.7117

                    103                    104                    105
                      A                      A                      A
 Frequencies --   3179.7783              3186.3781              3187.7879
 Red. masses --      1.0858                 1.0901                 1.0902
 Frc consts  --      6.4685                 6.5208                 6.5272
 IR Inten    --     15.5510                26.9882                25.2032

                    106                    107                    108
                      A                      A                      A
 Frequencies --   3201.5288              3203.5913              3219.7142
 Red. masses --      1.0954                 1.0955                 1.0920
 Frc consts  --      6.6152                 6.6242                 6.6700
 IR Inten    --     77.9485                84.8904                19.6121

                    109                    110                    111
                      A                      A                      A
 Frequencies --   3224.4518              3225.0828              3226.7670
 Red. masses --      1.0923                 1.0913                 1.0928
 Frc consts  --      6.6913                 6.6875                 6.7040
 IR Inten    --     14.6531                27.1636                 8.3153

                    112                    113                    114
                      A                      A                      A
 Frequencies --   3385.1921              3528.5612              3536.7230
 Red. masses --      1.0725                 1.0646                 1.0789
 Frc consts  --      7.2410                 7.8100                 7.9513
 IR Inten    --    597.8985               249.3089               638.2192

 - Thermochemistry -
 -------------------
 Temperature   298.150 Kelvin.  Pressure   1.00000 Atm.
 Atom     1 has atomic number  6 and mass  12.00000

 Molecular mass:   272.15248 amu.
 Principal axes and moments of inertia in atomic units:
                           1         2         3
     Eigenvalues --  5164.445415647.432558865.25308
           X            0.99907   0.04265  -0.00703
           Y           -0.04254   0.99899   0.01465
           Z            0.00765  -0.01434   0.99987
 This molecule is an asymmetric top.
 Rotational symmetry number  1.
 Warning -- assumption of classical behavior for rotation
           may cause significant error
 Rotational temperatures (Kelvin)      0.01677     0.01534     0.00977
 Rotational constants (GHZ):           0.34945     0.31957     0.20357
    1 imaginary frequencies ignored.
 Zero-point vibrational energy     862490.9 (Joules/Mol)
                                  206.14027 (Kcal/Mol)
 Warning -- explicit consideration of  31 degrees of freedom as
           vibrations may cause significant error
 Vibrational temperatures:     30.96    36.94    77.99    90.27   103.01
          (Kelvin)            119.09   140.80   166.29   238.46   308.97
                              321.28   338.10   352.88   368.01   375.68
                              386.12   394.36   429.41   449.78   522.92
                              534.48   568.84   601.98   617.07   661.20
                              689.92   698.69   762.32   794.80   819.34
                              885.79   900.83   907.12   908.85  1014.11
                             1021.41  1039.81  1088.11  1113.54  1125.73
                             1210.72  1227.56  1238.74  1330.86  1341.81
                             1355.40  1391.27  1408.28  1413.79  1439.72
                             1443.51  1447.38  1449.02  1455.48  1508.21
                             1510.92  1521.89  1539.58  1565.40  1573.00
                             1593.72  1599.46  1626.75  1710.03  1712.95
                             1742.30  1747.30  1768.59  1784.42  1849.88
                             1862.33  1924.68  1935.60  1958.74  1965.05
                             1980.46  2020.23  2035.23  2045.33  2134.04
                             2139.21  2145.46  2156.08  2159.88  2175.50
                             2188.85  2206.42  2209.59  2324.26  2338.19
                             2362.99  2371.42  2528.71  2861.46  4366.32
                             4368.02  4479.61  4481.94  4550.85  4553.98
                             4572.04  4574.99  4584.49  4586.52  4606.29
                             4609.25  4632.45  4639.27  4640.17  4642.60
                             4870.54  5076.81  5088.56

 Zero-point correction=                           0.328505 (Hartree/Particle)
 Thermal correction to Energy=                    0.348292
 Thermal correction to Enthalpy=                  0.349236
 Thermal correction to Gibbs Free Energy=         0.279416
 Sum of electronic and zero-point Energies=           -881.330873
 Sum of electronic and thermal Energies=              -881.311086
 Sum of electronic and thermal Enthalpies=            -881.310142
 Sum of electronic and thermal Free Energies=         -881.379962

                     E (Thermal)             CV                S
                      KCal/Mol        Cal/Mol-Kelvin    Cal/Mol-Kelvin
 Total                  218.556             76.283            146.949
 Electronic               0.000              0.000              0.000
 Translational            0.889              2.981             42.702
 Rotational               0.889              2.981             33.913
 Vibrational            216.779             70.321             70.333
 Vibration     1          0.593              1.985              6.489
 Vibration     2          0.593              1.985              6.138
 Vibration     3          0.596              1.976              4.658
 Vibration     4          0.597              1.972              4.369
 Vibration     5          0.598              1.968              4.109
 Vibration     6          0.600              1.961              3.824
 Vibration     7          0.603              1.951              3.497
 Vibration     8          0.608              1.936              3.173
 Vibration     9          0.624              1.885              2.483
 Vibration    10          0.645              1.819              2.003
 Vibration    11          0.649              1.806              1.932
 Vibration    12          0.655              1.787              1.841
 Vibration    13          0.660              1.771              1.764
 Vibration    14          0.666              1.753              1.690
 Vibration    15          0.669              1.744              1.654
 Vibration    16          0.673              1.731              1.607
 Vibration    17          0.676              1.721              1.570
 Vibration    18          0.692              1.677              1.426
 Vibration    19          0.701              1.650              1.348
 Vibration    20          0.737              1.548              1.107
 Vibration    21          0.743              1.531              1.074
 Vibration    22          0.762              1.480              0.980
 Vibration    23          0.781              1.430              0.897
 Vibration    24          0.790              1.407              0.862
 Vibration    25          0.817              1.340              0.767
 Vibration    26          0.836              1.295              0.711
 Vibration    27          0.842              1.282              0.695
 Vibration    28          0.885              1.184              0.588
 Vibration    29          0.908              1.134              0.539
 Vibration    30          0.926              1.097              0.505
 Vibration    31          0.975              0.999              0.423

 Optimization completed.
    -- Stationary point found.

 1\1\GINC-BLG9235\Freq\UB3LYP\6-31G(d,p)\C16H20N2O2\RZK\12-Jun-2019\0\\
 #p freq ub3lyp/6-31g(d,p) scrf=(iefpcm,solvent=acetonitrile) guess=(mi
 x,always) empiricaldispersion=gd3\\Title Card Required\\0,1\C,0.040816
 ,-0.77886,1.232213\H,-3.565922,-1.894467,-1.880089\C,-1.113422,0.26517
 7,-0.246812\O,-2.252548,0.234366,0.395707\O,-0.879693,-1.781141,1.4572
 23\N,-4.163487,-1.354232,-0.200903\H,-4.934704,-1.355113,0.464026\N,-4
 .403411,-1.999988,-1.290296\H,-1.750134,-1.326958,1.434747\H,-3.314569
 ,-0.694709,-0.015855\C,0.089016,0.235655,2.350344\H,0.731641,1.086234,

 Normal termination of Gaussian 16 at Wed Jun 12 01:12:19 2019.
