 Gaussian 16, Revision A.03,
 Gaussian 16:  EM64M-G16RevA.03 25-Dec-2016

 ----------------------------------------------------------------------
 #p opt ub3lyp/6-31g(d,p) scrf=(iefpcm,solvent=acetonitrile) guess=(mix
 ,always) empiricaldispersion=gd3
 ----------------------------------------------------------------------

 -------------------
 Title Card Required
 -------------------
 Symbolic Z-matrix:
 Charge =  0 Multiplicity = 1

 SCF Done:  E(UB3LYP) =  -110.616172961     A.U. after   19 cycles
 SCF Done:  E(UB3LYP) =  -110.617094873     A.U. after   18 cycles
 SCF Done:  E(UB3LYP) =  -110.615767850     A.U. after   18 cycles
 SCF Done:  E(UB3LYP) =  -110.617173599     A.U. after   16 cycles
 SCF Done:  E(UB3LYP) =  -110.617176438     A.U. after   16 cycles
 Optimization completed.
    -- Stationary point found.

                         Standard orientation:
 ---------------------------------------------------------------------
 Center     Atomic      Atomic             Coordinates (Angstroms)
 Number     Number       Type             X           Y           Z
 ---------------------------------------------------------------------
      1          7           0        0.460827    0.000021   -0.000113
      2          1           0        1.047379   -0.862918    0.000268
      3          7           0       -0.760088   -0.000002    0.000037
      4          1           0        1.047449    0.862786    0.000268
 ---------------------------------------------------------------------

 The electronic state is 1-A.
 Alpha  occ. eigenvalues --  -14.44209 -14.33552  -1.02662  -0.70647  -0.55060
 Alpha  occ. eigenvalues --   -0.40156  -0.39160  -0.19340
 Alpha virt. eigenvalues --   -0.03678   0.06983   0.14475   0.35279   0.61679
 Alpha virt. eigenvalues --    0.63482   0.71028   0.71526   0.72314   0.76510
 Alpha virt. eigenvalues --    0.78451   0.90318   0.90930   1.19632   1.36744

  Beta  occ. eigenvalues --  -14.44209 -14.33552  -1.02662  -0.70647  -0.55060
  Beta  occ. eigenvalues --   -0.40156  -0.39160  -0.19340
  Beta virt. eigenvalues --   -0.03678   0.06983   0.14475   0.35279   0.61679
  Beta virt. eigenvalues --    0.63482   0.71028   0.71526   0.72314   0.76510
  Beta virt. eigenvalues --    0.78451   0.90318   0.90930   1.19632   1.36744

 Mulliken charges and spin densities:
               1          2
     1  N   -0.197250  -0.000000
     2  H    0.276329   0.000000
     3  N   -0.355449   0.000000
     4  H    0.276370  -0.000000
 Sum of Mulliken charges =  -0.00000  -0.00000

 Dipole moment (field-independent basis, Debye):
    X=              4.1342    Y=              0.0001    Z=              0.0008  Tot=              4.1342
 Quadrupole moment (field-independent basis, Debye-Ang):
   XX=            -12.0249   YY=            -11.1519   ZZ=            -11.7821
   XY=              0.0003   XZ=              0.0010   YZ=             -0.0000

 Normal termination of Gaussian 16 at Tue Jun 11 18:44:07 2019.
