 Gaussian 16, Revision B.01,
 Gaussian 16:  ES64L-G16RevB.01 20-Dec-2017

 ----------------------------------------------------------------------
 #p opt td=(50-50,nstates=12,root=04) ub3lyp/6-31g(d,p) scrf=(iefpcm,so
 lvent=acetonitrile) guess=(core,mix,always) empiricaldispersion=gd3
 ----------------------------------------------------------------------

 -------------------
 Title Card Required
 -------------------
 Symbolic Z-matrix:
 Charge =  0 Multiplicity = 1

 SCF Done:  E(UB3LYP) =  -384.925582213     A.U. after   20 cycles
 Total Energy, E(TD-HF/TD-DFT) =  -384.778739702
 SCF Done:  E(UB3LYP) =  -384.918205086     A.U. after   22 cycles
 Total Energy, E(TD-HF/TD-DFT) =  -384.787753197
 SCF Done:  E(UB3LYP) =  -384.914960011     A.U. after   23 cycles
 Total Energy, E(TD-HF/TD-DFT) =  -384.788220848
 SCF Done:  E(UB3LYP) =  -384.914534925     A.U. after   22 cycles
 Total Energy, E(TD-HF/TD-DFT) =  -384.788476161
 SCF Done:  E(UB3LYP) =  -384.915505882     A.U. after   22 cycles
 Total Energy, E(TD-HF/TD-DFT) =  -384.788522614
 SCF Done:  E(UB3LYP) =  -384.915541579     A.U. after   22 cycles

 Excitation energies and oscillator strengths:

 Excited State   1:  3.000-A      2.9956 eV  413.88 nm  f=0.0000  <S**2>=2.000
     31A -> 33A       -0.69077
     31A -> 35A        0.14712
     31B -> 33B        0.69077
     31B -> 35B       -0.14712

 Excited State   2:  3.000-A      3.0236 eV  410.06 nm  f=0.0000  <S**2>=2.000
     30A -> 33A        0.62878
     32A -> 34A       -0.30191
     30B -> 33B       -0.62878
     32B -> 34B        0.30191

 Excited State   3:  1.000-A      3.5082 eV  353.41 nm  f=0.0001  <S**2>=0.000
     31A -> 33A        0.69826
     31A -> 35A       -0.10720
     31B -> 33B        0.69826
     31B -> 35B       -0.10720

 Excited State   4:  3.000-A      3.4563 eV  358.72 nm  f=0.0000  <S**2>=2.000
     32A -> 33A       -0.69599
     32B -> 33B        0.69599
 This state for optimization and/or second-order correction.
 Total Energy, E(TD-HF/TD-DFT) =  -384.788523581
 Copying the excited state density for this state as the 1-particle RhoCI density.

 Excited State   5:  3.000-A      4.0670 eV  304.85 nm  f=0.0000  <S**2>=2.000
     30A -> 33A        0.28990
     32A -> 34A        0.63010
     30B -> 33B       -0.28990
     32B -> 34B       -0.63010

 Excited State   6:  1.000-A      4.2323 eV  292.95 nm  f=0.0520  <S**2>=0.000
     30A -> 34A       -0.17655
     32A -> 33A       -0.68468
     30B -> 34B       -0.17655
     32B -> 33B       -0.68468

 Excited State   7:  1.000-A      4.8408 eV  256.12 nm  f=0.4822  <S**2>=0.000
     30A -> 33A       -0.69765
     30B -> 33B       -0.69765

 Excited State   8:  3.000-A      4.9724 eV  249.34 nm  f=0.0000  <S**2>=2.000
     22A -> 33A       -0.13705
     26A -> 33A        0.12273
     28A -> 33A       -0.58507
     28A -> 35A        0.10213
     30A -> 33A       -0.11291
     30A -> 34A        0.13250
     30A -> 35A       -0.25570
     22B -> 33B        0.13705
     26B -> 33B       -0.12273
     28B -> 33B        0.58507
     28B -> 35B       -0.10213
     30B -> 33B        0.11290
     30B -> 34B       -0.13250
     30B -> 35B        0.25570

 Excited State   9:  3.000-A      5.0850 eV  243.82 nm  f=0.0000  <S**2>=2.000
     28A -> 33A       -0.11247
     30A -> 34A       -0.68484
     28B -> 33B        0.11247
     30B -> 34B        0.68484

 Excited State  10:  3.000-A      5.6564 eV  219.19 nm  f=0.0000  <S**2>=2.000
     31A -> 34A        0.70241
     31B -> 34B       -0.70237

 Excited State  11:  1.000-A      5.6783 eV  218.35 nm  f=0.0000  <S**2>=0.000
     31A -> 34A        0.70602
     31B -> 34B        0.70605

 Excited State  12:  3.000-A      6.0051 eV  206.46 nm  f=0.0000  <S**2>=2.000
     29A -> 33A        0.68906
     29B -> 33B       -0.68907

 Optimization completed.
    -- Stationary point found.

                         Standard orientation:
 ---------------------------------------------------------------------
 Center     Atomic      Atomic             Coordinates (Angstroms)
 Number     Number       Type             X           Y           Z
 ---------------------------------------------------------------------
      1          6           0       -1.705408   -0.190505   -0.000070
      2          8           0       -2.259366   -1.327434    0.000058
      3          6           0       -2.555905    1.073976    0.000006
      4          1           0       -2.362867    1.699183    0.881463
      5          1           0       -2.362861    1.699301   -0.881364
      6          1           0       -3.609649    0.788859   -0.000014
      7          6           0       -0.278309   -0.048149   -0.000043
      8          6           0        0.551142   -1.208781   -0.000033
      9          6           0        0.438631    1.199034    0.000005
     10          6           0        1.980066   -1.135793   -0.000010
     11          1           0        0.067996   -2.179457   -0.000044
     12          6           0        1.875378    1.244720    0.000026
     13          1           0       -0.095304    2.142286    0.000035
     14          6           0        2.662604    0.093992    0.000020
     15          1           0        2.538190   -2.067237   -0.000018
     16          1           0        2.347298    2.222964    0.000046
     17          1           0        3.742933    0.142617    0.000034
 ---------------------------------------------------------------------

 The electronic state is 1-A.
 Alpha  occ. eigenvalues --  -19.14006 -10.28280 -10.21416 -10.20943 -10.20794
 Alpha  occ. eigenvalues --  -10.20728 -10.20469 -10.20412 -10.18807  -1.01907
 Alpha  occ. eigenvalues --   -0.85537  -0.78101  -0.74528  -0.72805  -0.63962
 Alpha  occ. eigenvalues --   -0.60831  -0.55425  -0.51286  -0.46834  -0.46013
 Alpha  occ. eigenvalues --   -0.44926  -0.43856  -0.41746  -0.41050  -0.39047
 Alpha  occ. eigenvalues --   -0.37558  -0.36416  -0.34669  -0.34445  -0.26401
 Alpha  occ. eigenvalues --   -0.25644  -0.25411
 Alpha virt. eigenvalues --   -0.07190  -0.01697   0.03664   0.09384   0.11977
 Alpha virt. eigenvalues --    0.14752   0.14899   0.15187   0.16487   0.18407
 Alpha virt. eigenvalues --    0.18550   0.19504   0.22045   0.25434   0.27920

  Beta  occ. eigenvalues --  -19.14006 -10.28280 -10.21416 -10.20943 -10.20794
  Beta  occ. eigenvalues --  -10.20728 -10.20469 -10.20412 -10.18807  -1.01907
  Beta  occ. eigenvalues --   -0.85537  -0.78101  -0.74528  -0.72805  -0.63962
  Beta  occ. eigenvalues --   -0.60831  -0.55425  -0.51286  -0.46834  -0.46013
  Beta  occ. eigenvalues --   -0.44926  -0.43856  -0.41746  -0.41050  -0.39047
  Beta  occ. eigenvalues --   -0.37558  -0.36416  -0.34669  -0.34445  -0.26401
  Beta  occ. eigenvalues --   -0.25644  -0.25411
  Beta virt. eigenvalues --   -0.07190  -0.01697   0.03664   0.09384   0.11977
  Beta virt. eigenvalues --    0.14752   0.14899   0.15187   0.16487   0.18408
  Beta virt. eigenvalues --    0.18550   0.19504   0.22045   0.25434   0.27920

 Mulliken charges and spin densities:
               1          2
     1  C    0.382258   0.000001
     2  O   -0.527783  -0.000001
     3  C   -0.400546  -0.000000
     4  H    0.148109   0.000000
     5  H    0.148097   0.000000
     6  H    0.130749   0.000000
     7  C    0.072440  -0.000000
     8  C   -0.113019   0.000000
     9  C   -0.133182  -0.000000
    10  C   -0.106664  -0.000000
    11  H    0.113986  -0.000000
    12  C   -0.106697   0.000000
    13  H    0.115617  -0.000000
    14  C   -0.072317   0.000000
    15  H    0.111814   0.000000
    16  H    0.112640  -0.000000
    17  H    0.124498   0.000000
 Sum of Mulliken charges =  -0.00000  -0.00000

 Dipole moment (field-independent basis, Debye):
    X=              2.9678    Y=              3.3449    Z=             -0.0001  Tot=              4.4717
 Quadrupole moment (field-independent basis, Debye-Ang):
   XX=            -49.7250   YY=            -49.6557   ZZ=            -54.2569
   XY=             -7.7588   XZ=              0.0004   YZ=              0.0004

 Normal termination of Gaussian 16 at Fri May 10 12:41:33 2019.
