 Gaussian 16, Revision A.03,
 Gaussian 16:  ES64L-G16RevA.03 25-Dec-2016

 ----------------------------------------------------------------------
 #p opt ub3lyp/6-31g(d,p) scrf=(iefpcm,solvent=acetonitrile) guess=(mix
 ,always) empiricaldispersion=gd3
 ----------------------------------------------------------------------

 -------------------
 Title Card Required
 -------------------
 Symbolic Z-matrix:
 Charge =  0 Multiplicity = 1

 SCF Done:  E(UB3LYP) =  -881.714191439     A.U. after   17 cycles
 SCF Done:  E(UB3LYP) =  -881.721165468     A.U. after   17 cycles
 SCF Done:  E(UB3LYP) =  -881.712911004     A.U. after   17 cycles
 SCF Done:  E(UB3LYP) =  -881.722294144     A.U. after   17 cycles
 SCF Done:  E(UB3LYP) =  -881.720777222     A.U. after   17 cycles
 SCF Done:  E(UB3LYP) =  -881.722841572     A.U. after   18 cycles
 SCF Done:  E(UB3LYP) =  -881.722603715     A.U. after   17 cycles
 SCF Done:  E(UB3LYP) =  -881.723489096     A.U. after   17 cycles
 SCF Done:  E(UB3LYP) =  -881.723590070     A.U. after   17 cycles
 SCF Done:  E(UB3LYP) =  -881.723945990     A.U. after   18 cycles
 SCF Done:  E(UB3LYP) =  -881.723926297     A.U. after   18 cycles
 SCF Done:  E(UB3LYP) =  -881.723958124     A.U. after   17 cycles
 SCF Done:  E(UB3LYP) =  -881.723987066     A.U. after   15 cycles
 SCF Done:  E(UB3LYP) =  -881.723996981     A.U. after   15 cycles
 SCF Done:  E(UB3LYP) =  -881.724000398     A.U. after   16 cycles
 SCF Done:  E(UB3LYP) =  -881.724001805     A.U. after   16 cycles
 SCF Done:  E(UB3LYP) =  -881.724002077     A.U. after   17 cycles
 SCF Done:  E(UB3LYP) =  -881.724001980     A.U. after   18 cycles
 SCF Done:  E(UB3LYP) =  -881.724002511     A.U. after   18 cycles
 SCF Done:  E(UB3LYP) =  -881.724002428     A.U. after   18 cycles
 Optimization completed.
    -- Stationary point found.

                         Standard orientation:
 ---------------------------------------------------------------------
 Center     Atomic      Atomic             Coordinates (Angstroms)
 Number     Number       Type             X           Y           Z
 ---------------------------------------------------------------------
      1          6           0        0.639308   -0.164052    0.891880
      2          1           0        3.349537   -1.827786   -0.112874
      3          6           0       -0.133119   -1.001807   -0.238620
      4          8           0       -0.034656   -2.375064    0.155335
      5          8           0        1.904325   -0.826056    1.102288
      6          7           0        2.554559   -3.394776   -0.607116
      7          1           0        2.773041   -4.324722   -1.003548
      8          7           0        3.613531   -2.748255   -0.516602
      9          1           0        1.667318   -1.711233    1.417999
     10          1           0        0.805743   -2.742662   -0.194068
     11          6           0       -0.122612   -0.219362    2.222920
     12          1           0        0.488143    0.236328    3.005929
     13          1           0       -1.084174    0.292236    2.178926
     14          1           0       -0.317918   -1.263620    2.482746
     15          6           0        0.523693   -0.824201   -1.614742
     16          1           0        0.068024   -1.525188   -2.319007
     17          1           0        0.407790    0.187610   -2.002556
     18          1           0        1.593582   -1.030281   -1.556228
     19          6           0        0.959635    1.264038    0.465352
     20          6           0        2.193486    1.569491   -0.129877
     21          6           0        0.034204    2.304445    0.636474
     22          6           0        2.486949    2.866569   -0.551865
     23          1           0        2.929324    0.785520   -0.259117
     24          6           0        0.324462    3.602515    0.211848
     25          1           0       -0.928633    2.107242    1.092019
     26          6           0        1.552166    3.890531   -0.385804
     27          1           0        3.449783    3.076278   -1.009033
     28          1           0       -0.411741    4.388340    0.353855
     29          1           0        1.779623    4.900596   -0.713499
     30          6           0       -1.621015   -0.648092   -0.288750
     31          6           0       -2.564441   -1.470976    0.344357
     32          6           0       -2.083485    0.501877   -0.946101
     33          6           0       -3.922540   -1.149969    0.331222
     34          1           0       -2.224752   -2.369401    0.844295
     35          6           0       -3.441613    0.826142   -0.958919
     36          1           0       -1.385341    1.161822   -1.446760
     37          6           0       -4.368849    0.002449   -0.318914
     38          1           0       -4.632891   -1.804444    0.828653
     39          1           0       -3.772193    1.723185   -1.474624
     40          1           0       -5.425610    0.252757   -0.330835
 ---------------------------------------------------------------------

 The electronic state is 1-A.
 Alpha  occ. eigenvalues --  -19.15587 -19.13748 -14.40945 -14.40102 -10.25063
 Alpha  occ. eigenvalues --  -10.24890 -10.19687 -10.19368 -10.18974 -10.18930
 Alpha  occ. eigenvalues --  -10.18880 -10.18858 -10.18840 -10.18775 -10.18723
 Alpha  occ. eigenvalues --  -10.18679 -10.18669 -10.18345 -10.17390 -10.17303
 Alpha  occ. eigenvalues --   -1.04598  -1.03711  -1.00415  -0.85675  -0.85017
 Alpha  occ. eigenvalues --   -0.79238  -0.75748  -0.74377  -0.74152  -0.72138
 Alpha  occ. eigenvalues --   -0.71984  -0.70741  -0.64527  -0.62681  -0.60438
 Alpha  occ. eigenvalues --   -0.59667  -0.58235  -0.55909  -0.51997  -0.51528
 Alpha  occ. eigenvalues --   -0.50327  -0.49680  -0.47909  -0.47116  -0.45744
 Alpha  occ. eigenvalues --   -0.44868  -0.44435  -0.44241  -0.43711  -0.42507
 Alpha  occ. eigenvalues --   -0.42177  -0.41567  -0.41405  -0.40683  -0.40192
 Alpha  occ. eigenvalues --   -0.37943  -0.37728  -0.36771  -0.36234  -0.36111
 Alpha  occ. eigenvalues --   -0.35617  -0.34858  -0.33851  -0.33742  -0.33026
 Alpha  occ. eigenvalues --   -0.31048  -0.29476  -0.27571  -0.25489  -0.25297
 Alpha  occ. eigenvalues --   -0.24700  -0.24286  -0.23484
 Alpha virt. eigenvalues --   -0.06768  -0.00741  -0.00574  -0.00201   0.00629
 Alpha virt. eigenvalues --    0.07605   0.09379   0.10143   0.11032   0.11660
 Alpha virt. eigenvalues --    0.13031   0.13625   0.13870   0.14472   0.14838

  Beta  occ. eigenvalues --  -19.15587 -19.13748 -14.40945 -14.40102 -10.25063
  Beta  occ. eigenvalues --  -10.24890 -10.19687 -10.19368 -10.18974 -10.18930
  Beta  occ. eigenvalues --  -10.18880 -10.18858 -10.18840 -10.18775 -10.18723
  Beta  occ. eigenvalues --  -10.18679 -10.18669 -10.18345 -10.17390 -10.17303
  Beta  occ. eigenvalues --   -1.04598  -1.03711  -1.00415  -0.85675  -0.85017
  Beta  occ. eigenvalues --   -0.79238  -0.75748  -0.74377  -0.74152  -0.72138
  Beta  occ. eigenvalues --   -0.71984  -0.70741  -0.64527  -0.62681  -0.60438
  Beta  occ. eigenvalues --   -0.59667  -0.58235  -0.55909  -0.51997  -0.51528
  Beta  occ. eigenvalues --   -0.50327  -0.49680  -0.47909  -0.47116  -0.45744
  Beta  occ. eigenvalues --   -0.44868  -0.44435  -0.44241  -0.43711  -0.42507
  Beta  occ. eigenvalues --   -0.42177  -0.41567  -0.41405  -0.40683  -0.40192
  Beta  occ. eigenvalues --   -0.37943  -0.37728  -0.36771  -0.36234  -0.36111
  Beta  occ. eigenvalues --   -0.35617  -0.34858  -0.33851  -0.33742  -0.33026
  Beta  occ. eigenvalues --   -0.31048  -0.29476  -0.27571  -0.25489  -0.25297
  Beta  occ. eigenvalues --   -0.24700  -0.24286  -0.23484
  Beta virt. eigenvalues --   -0.06768  -0.00741  -0.00574  -0.00201   0.00629
  Beta virt. eigenvalues --    0.07605   0.09379   0.10143   0.11032   0.11660
  Beta virt. eigenvalues --    0.13031   0.13625   0.13870   0.14472   0.14838

 Mulliken charges and spin densities:
               1          2
     1  C    0.226751   0.000000
     2  H    0.292875  -0.000000
     3  C    0.240433  -0.000000
     4  O   -0.627850   0.000000
     5  O   -0.590023  -0.000000
     6  N   -0.291009  -0.000000
     7  H    0.293231   0.000000
     8  N   -0.265193   0.000000
     9  H    0.320529   0.000000
    10  H    0.350454  -0.000000
    11  C   -0.338501   0.000000
    12  H    0.113350  -0.000000
    13  H    0.119909  -0.000000
    14  H    0.112922  -0.000000
    15  C   -0.345185   0.000000
    16  H    0.114551  -0.000000
    17  H    0.119804  -0.000000
    18  H    0.105420  -0.000000
    19  C    0.092025  -0.000000
    20  C   -0.118588   0.000000
    21  C   -0.127767   0.000000
    22  C   -0.107564  -0.000000
    23  H    0.104017  -0.000000
    24  C   -0.111690  -0.000000
    25  H    0.100417  -0.000000
    26  C   -0.098718   0.000000
    27  H    0.099610   0.000000
    28  H    0.100614   0.000000
    29  H    0.099598  -0.000000
    30  C    0.084108   0.000000
    31  C   -0.117597   0.000000
    32  C   -0.130024  -0.000000
    33  C   -0.107109  -0.000000
    34  H    0.104387  -0.000000
    35  C   -0.112988   0.000000
    36  H    0.100271   0.000000
    37  C   -0.099443  -0.000000
    38  H    0.097292   0.000000
    39  H    0.098853  -0.000000
    40  H    0.097828   0.000000
 Sum of Mulliken charges =  -0.00000   0.00000

 Dipole moment (field-independent basis, Debye):
    X=              0.3977    Y=             -0.6236    Z=             -0.7547  Tot=              1.0567
 Quadrupole moment (field-independent basis, Debye-Ang):
   XX=           -115.8344   YY=           -103.4776   ZZ=           -117.8973
   XY=             -7.1636   XZ=             -4.4801   YZ=             -2.2640

 1\1\GINC-BLG9232\FOpt\UB3LYP\6-31G(d,p)\C16H20N2O2\RZK\11-Jun-2019\0\\
 #p opt ub3lyp/6-31g(d,p) scrf=(iefpcm,solvent=acetonitrile) guess=(mix
 ,always) empiricaldispersion=gd3\\Title Card Required\\0,1\C,0.5960262
 474,0.2623195823,-0.890978884\H,2.9902227711,2.3673288344,0.0886334292
 \C,-0.301332847,0.9638696166,0.2399860641\O,-0.4391144668,2.3315434798
 ,-0.1615288344\O,1.7294159439,1.1278458842,-1.1125196751\N,1.943723002
 7,3.7798866857,0.5797994802\H,2.0034759591,4.7357855734,0.9701573123\N
 ,3.0964725277,3.3216452399,0.4860548635\H,1.3441605553,1.9581303405,-1

 Normal termination of Gaussian 16 at Tue Jun 11 16:53:06 2019.
