 Gaussian 16, Revision B.01,
 Gaussian 16:  ES64L-G16RevB.01 20-Dec-2017

 ----------------------------------------------------------------------
 #p opt ub3lyp/6-31g(d,p) scrf=(iefpcm,solvent=acetonitrile) guess=(mix
 ,always) empiricaldispersion=gd3
 ----------------------------------------------------------------------

 -------------------
 Title Card Required
 -------------------
 Symbolic Z-matrix:
 Charge =  0 Multiplicity = 1

 SCF Done:  E(UB3LYP) =  -881.716805200     A.U. after   17 cycles
 SCF Done:  E(UB3LYP) =  -881.717201913     A.U. after   17 cycles
 SCF Done:  E(UB3LYP) =  -881.717214913     A.U. after   17 cycles
 SCF Done:  E(UB3LYP) =  -881.717361081     A.U. after   17 cycles
 SCF Done:  E(UB3LYP) =  -881.717378313     A.U. after   17 cycles
 SCF Done:  E(UB3LYP) =  -881.717380176     A.U. after   17 cycles
 SCF Done:  E(UB3LYP) =  -881.717380750     A.U. after   17 cycles
 Optimization completed.
    -- Stationary point found.

                         Standard orientation:
 ---------------------------------------------------------------------
 Center     Atomic      Atomic             Coordinates (Angstroms)
 Number     Number       Type             X           Y           Z
 ---------------------------------------------------------------------
      1          6           0       -0.771084    0.600371   -0.464532
      2          1           0       -5.497758    0.575399   -0.951424
      3          6           0       -0.724319   -0.615801    0.581589
      4          8           0       -1.866265   -1.445911    0.352804
      5          8           0       -1.913478    1.401593   -0.146408
      6          7           0       -4.575058   -0.411559    0.400443
      7          1           0       -2.674945   -0.968497    0.614001
      8          7           0       -4.558612    0.363172   -0.566051
      9          1           0       -2.712639    1.011742   -0.546100
     10          1           0       -5.526087   -0.727703    0.667314
     11          6           0       -0.930497    0.073986   -1.897974
     12          1           0       -1.012566    0.919835   -2.585375
     13          1           0       -0.094992   -0.553689   -2.209840
     14          1           0       -1.837620   -0.531401   -1.959151
     15          6           0       -0.794756   -0.084715    2.021367
     16          1           0       -0.794162   -0.927642    2.716955
     17          1           0        0.036537    0.577591    2.267752
     18          1           0       -1.717850    0.485352    2.145859
     19          6           0        0.450368    1.512472   -0.329294
     20          6           0        0.387088    2.664719    0.468621
     21          6           0        1.661084    1.226394   -0.977599
     22          6           0        1.497068    3.497251    0.621590
     23          1           0       -0.543868    2.907232    0.966138
     24          6           0        2.771825    2.059019   -0.830313
     25          1           0        1.751123    0.339920   -1.594273
     26          6           0        2.696714    3.198603   -0.027659
     27          1           0        1.421473    4.382825    1.246555
     28          1           0        3.696885    1.812848   -1.343888
     29          1           0        3.560574    3.846783    0.087843
     30          6           0        0.497815   -1.509192    0.363158
     31          6           0        0.409947   -2.634604   -0.470334
     32          6           0        1.733671   -1.231017    0.965400
     33          6           0        1.520906   -3.446645   -0.704065
     34          1           0       -0.540541   -2.871226   -0.932502
     35          6           0        2.845940   -2.042990    0.736805
     36          1           0        1.841989   -0.365823    1.608754
     37          6           0        2.746433   -3.154479   -0.101721
     38          1           0        1.426202   -4.311160   -1.355342
     39          1           0        3.791254   -1.802760    1.215082
     40          1           0        3.611407   -3.786601   -0.280509
 ---------------------------------------------------------------------

 The electronic state is 1-A.
 Alpha  occ. eigenvalues --  -19.13147 -19.13084 -14.42202 -14.42146 -10.24196
 Alpha  occ. eigenvalues --  -10.24097 -10.19030 -10.19028 -10.18639 -10.18627
 Alpha  occ. eigenvalues --  -10.18597 -10.18585 -10.18560 -10.18545 -10.18443
 Alpha  occ. eigenvalues --  -10.18438 -10.18172 -10.18159 -10.16861 -10.16678
 Alpha  occ. eigenvalues --   -1.05855  -1.02042  -0.99669  -0.85279  -0.84651
 Alpha  occ. eigenvalues --   -0.78511  -0.75315  -0.73962  -0.73930  -0.71644
 Alpha  occ. eigenvalues --   -0.71464  -0.70578  -0.64059  -0.62144  -0.60007
 Alpha  occ. eigenvalues --   -0.59363  -0.58839  -0.57726  -0.55618  -0.51464
 Alpha  occ. eigenvalues --   -0.50256  -0.50055  -0.47023  -0.46611  -0.44444
 Alpha  occ. eigenvalues --   -0.44116  -0.43869  -0.43605  -0.42491  -0.42162
 Alpha  occ. eigenvalues --   -0.41588  -0.41345  -0.41028  -0.39986  -0.39551
 Alpha  occ. eigenvalues --   -0.37603  -0.37177  -0.36359  -0.35748  -0.35150
 Alpha  occ. eigenvalues --   -0.34909  -0.34399  -0.33468  -0.33149  -0.32610
 Alpha  occ. eigenvalues --   -0.30139  -0.28404  -0.27296  -0.26539  -0.25034
 Alpha  occ. eigenvalues --   -0.24322  -0.23577  -0.22958
 Alpha virt. eigenvalues --   -0.07978  -0.00409  -0.00074  -0.00015   0.00889
 Alpha virt. eigenvalues --    0.05777   0.09678   0.09969   0.12216   0.12726
 Alpha virt. eigenvalues --    0.13425   0.14110   0.14517   0.14746   0.15097

  Beta  occ. eigenvalues --  -19.13147 -19.13084 -14.42202 -14.42146 -10.24196
  Beta  occ. eigenvalues --  -10.24097 -10.19030 -10.19028 -10.18639 -10.18627
  Beta  occ. eigenvalues --  -10.18597 -10.18585 -10.18560 -10.18545 -10.18443
  Beta  occ. eigenvalues --  -10.18438 -10.18172 -10.18159 -10.16861 -10.16678
  Beta  occ. eigenvalues --   -1.05855  -1.02042  -0.99669  -0.85279  -0.84651
  Beta  occ. eigenvalues --   -0.78511  -0.75315  -0.73962  -0.73930  -0.71644
  Beta  occ. eigenvalues --   -0.71464  -0.70578  -0.64059  -0.62144  -0.60007
  Beta  occ. eigenvalues --   -0.59363  -0.58839  -0.57726  -0.55618  -0.51464
  Beta  occ. eigenvalues --   -0.50256  -0.50055  -0.47023  -0.46611  -0.44444
  Beta  occ. eigenvalues --   -0.44116  -0.43869  -0.43605  -0.42491  -0.42162
  Beta  occ. eigenvalues --   -0.41588  -0.41345  -0.41028  -0.39986  -0.39551
  Beta  occ. eigenvalues --   -0.37603  -0.37177  -0.36359  -0.35748  -0.35150
  Beta  occ. eigenvalues --   -0.34909  -0.34399  -0.33468  -0.33149  -0.32610
  Beta  occ. eigenvalues --   -0.30139  -0.28404  -0.27296  -0.26539  -0.25034
  Beta  occ. eigenvalues --   -0.24322  -0.23577  -0.22958
  Beta virt. eigenvalues --   -0.07978  -0.00409  -0.00074  -0.00015   0.00889
  Beta virt. eigenvalues --    0.05777   0.09678   0.09969   0.12216   0.12726
  Beta virt. eigenvalues --    0.13425   0.14110   0.14517   0.14746   0.15097

 Mulliken charges and spin densities:
               1          2
     1  C    0.231329  -0.000000
     2  H    0.291916   0.000000
     3  C    0.239996   0.000000
     4  O   -0.617008  -0.000000
     5  O   -0.618770   0.000000
     6  N   -0.245811   0.000000
     7  H    0.339014  -0.000000
     8  N   -0.250775  -0.000000
     9  H    0.345219  -0.000000
    10  H    0.291994  -0.000000
    11  C   -0.340430   0.000000
    12  H    0.107229   0.000000
    13  H    0.112818  -0.000000
    14  H    0.109669   0.000000
    15  C   -0.334137  -0.000000
    16  H    0.104896  -0.000000
    17  H    0.109976  -0.000000
    18  H    0.108598  -0.000000
    19  C    0.085479   0.000000
    20  C   -0.120392   0.000000
    21  C   -0.118406  -0.000001
    22  C   -0.109342  -0.000000
    23  H    0.102071  -0.000000
    24  C   -0.114593   0.000000
    25  H    0.095938   0.000000
    26  C   -0.101047  -0.000000
    27  H    0.095284   0.000000
    28  H    0.096388  -0.000000
    29  H    0.095768  -0.000000
    30  C    0.084025  -0.000000
    31  C   -0.119792  -0.000000
    32  C   -0.117637   0.000001
    33  C   -0.109429  -0.000000
    34  H    0.102064   0.000000
    35  C   -0.113928  -0.000000
    36  H    0.094942  -0.000000
    37  C   -0.101032   0.000000
    38  H    0.095469  -0.000000
    39  H    0.096514   0.000000
    40  H    0.095933  -0.000000
 Sum of Mulliken charges =  -0.00000   0.00000

 Dipole moment (field-independent basis, Debye):
    X=             -6.3232    Y=             -0.0412    Z=             -0.6391  Tot=              6.3555
 Quadrupole moment (field-independent basis, Debye-Ang):
   XX=            -61.0139   YY=           -122.5954   ZZ=           -116.9005
   XY=              0.8090   XZ=              2.1324   YZ=              5.5315

 Normal termination of Gaussian 16 at Fri May 17 06:40:42 2019.
