 Gaussian 16, Revision B.01,
 Gaussian 16:  ES64L-G16RevB.01 20-Dec-2017

 ----------------------------------------------------------------------
 #p opt td=(50-50,nstates=12,root=03) ub3lyp/6-31g(d,p) scrf=(iefpcm,so
 lvent=acetonitrile) guess=(core,mix,always) empiricaldispersion=gd3
 ----------------------------------------------------------------------

 -------------------
 Title Card Required
 -------------------
 Symbolic Z-matrix:
 Charge =  0 Multiplicity = 1

 SCF Done:  E(UB3LYP) =  -384.925582213     A.U. after   20 cycles
 Total Energy, E(TD-HF/TD-DFT) =  -384.785080303
 SCF Done:  E(UB3LYP) =  -384.921074532     A.U. after   22 cycles
 Total Energy, E(TD-HF/TD-DFT) =  -384.794363519
 SCF Done:  E(UB3LYP) =  -384.909852278     A.U. after   22 cycles
 Total Energy, E(TD-HF/TD-DFT) =  -384.797125900
 SCF Done:  E(UB3LYP) =  -384.910536351     A.U. after   23 cycles
 Total Energy, E(TD-HF/TD-DFT) =  -384.797262525
 SCF Done:  E(UB3LYP) =  -384.910497597     A.U. after   24 cycles
 Total Energy, E(TD-HF/TD-DFT) =  -384.797276453
 SCF Done:  E(UB3LYP) =  -384.910518399     A.U. after   23 cycles

 Excitation energies and oscillator strengths:

 Excited State   1:  3.000-A      2.5800 eV  480.56 nm  f=0.0000  <S**2>=2.000
     32A -> 33A       -0.69093
     32A -> 35A        0.14927
     32B -> 33B        0.69092
     32B -> 35B       -0.14927

 Excited State   2:  3.000-A      2.7890 eV  444.55 nm  f=0.0000  <S**2>=2.000
     29A -> 33A       -0.10799
     29A -> 35A        0.11067
     30A -> 34A        0.15880
     31A -> 33A        0.67286
     29B -> 33B        0.10799
     29B -> 35B       -0.11067
     30B -> 34B       -0.15880
     31B -> 33B       -0.67286
     31A <- 33A        0.10827
     31B <- 33B       -0.10827

 Excited State   3:  1.000-A      3.0814 eV  402.36 nm  f=0.0001  <S**2>=0.000
     32A -> 33A        0.69876
     32A -> 35A       -0.10624
     32B -> 33B        0.69877
     32B -> 35B       -0.10625
 This state for optimization and/or second-order correction.
 Total Energy, E(TD-HF/TD-DFT) =  -384.797277550
 Copying the excited state density for this state as the 1-particle RhoCI density.

 Excited State   4:  3.000-A      3.6627 eV  338.50 nm  f=0.0000  <S**2>=2.000
     30A -> 33A        0.69041
     31A -> 33A       -0.10418
     30B -> 33B       -0.69041
     31B -> 33B        0.10418

 Excited State   5:  3.000-A      4.3766 eV  283.29 nm  f=0.0000  <S**2>=2.000
     29A -> 33A       -0.35000
     30A -> 34A       -0.53193
     31A -> 34A        0.17994
     31A -> 35A       -0.18795
     29B -> 33B        0.35000
     30B -> 34B        0.53193
     31B -> 34B       -0.17994
     31B -> 35B        0.18795

 Excited State   6:  1.000-A      4.4568 eV  278.19 nm  f=0.0611  <S**2>=0.000
     30A -> 33A        0.62759
     31A -> 33A       -0.26155
     31A -> 34A       -0.18678
     30B -> 33B        0.62759
     31B -> 33B       -0.26155
     31B -> 34B       -0.18678

 Excited State   7:  3.000-A      4.6931 eV  264.19 nm  f=0.0000  <S**2>=2.000
     29A -> 33A       -0.52007
     30A -> 34A        0.37886
     31A -> 33A       -0.17405
     31A -> 35A       -0.17802
     29B -> 33B        0.52007
     30B -> 34B       -0.37885
     31B -> 33B        0.17412
     31B -> 35B        0.17801

 Excited State   8:  1.000-A      4.7047 eV  263.53 nm  f=0.5401  <S**2>=0.000
     30A -> 33A       -0.25519
     31A -> 33A       -0.65036
     30B -> 33B       -0.25518
     31B -> 33B       -0.65034

 Excited State   9:  3.000-A      5.1593 eV  240.31 nm  f=0.0000  <S**2>=2.000
     30A -> 34A       -0.19729
     31A -> 34A       -0.66733
     30B -> 34B        0.19729
     31B -> 34B        0.66733

 Excited State  10:  3.000-A      5.4800 eV  226.25 nm  f=0.0000  <S**2>=2.000
     32A -> 34A        0.70410
     32B -> 34B       -0.70404

 Excited State  11:  1.000-A      5.4952 eV  225.62 nm  f=0.0000  <S**2>=0.000
     32A -> 34A        0.70655
     32B -> 34B        0.70661

 Excited State  12:  3.000-A      5.8412 eV  212.26 nm  f=0.0000  <S**2>=2.000
     24A -> 33A       -0.10057
     25A -> 33A        0.10184
     28A -> 33A        0.67632
     24B -> 33B        0.10057
     25B -> 33B       -0.10184
     28B -> 33B       -0.67632

 Optimization completed.
    -- Stationary point found.

                         Standard orientation:
 ---------------------------------------------------------------------
 Center     Atomic      Atomic             Coordinates (Angstroms)
 Number     Number       Type             X           Y           Z
 ---------------------------------------------------------------------
      1          6           0       -1.622631   -0.160333    0.000018
      2          8           0       -2.268352   -1.295301    0.000009
      3          6           0       -2.584495    1.021987    0.000015
      4          1           0       -2.411687    1.629699    0.893592
      5          1           0       -2.411342    1.629954   -0.893320
      6          1           0       -3.620398    0.679964   -0.000235
      7          6           0       -0.220007   -0.060664    0.000008
      8          6           0        0.593968   -1.241631   -0.000002
      9          6           0        0.438769    1.210311    0.000005
     10          6           0        1.974236   -1.140697   -0.000018
     11          1           0        0.116289   -2.216516   -0.000001
     12          6           0        1.821406    1.278822   -0.000012
     13          1           0       -0.144292    2.124901    0.000026
     14          6           0        2.607510    0.113315   -0.000024
     15          1           0        2.573253   -2.047400   -0.000026
     16          1           0        2.302264    2.253197   -0.000011
     17          1           0        3.690206    0.181948   -0.000035
 ---------------------------------------------------------------------

 The electronic state is 1-A.
 Alpha  occ. eigenvalues --  -19.12800 -10.27622 -10.21162 -10.21064 -10.21058
 Alpha  occ. eigenvalues --  -10.20847 -10.20292 -10.20228 -10.18524  -0.99250
 Alpha  occ. eigenvalues --   -0.86518  -0.78067  -0.75920  -0.72546  -0.64716
 Alpha  occ. eigenvalues --   -0.61035  -0.55795  -0.51122  -0.46889  -0.45937
 Alpha  occ. eigenvalues --   -0.44427  -0.43790  -0.43169  -0.40134  -0.38808
 Alpha  occ. eigenvalues --   -0.38076  -0.36641  -0.34537  -0.33665  -0.26739
 Alpha  occ. eigenvalues --   -0.25905  -0.24348
 Alpha virt. eigenvalues --   -0.07607  -0.01176   0.03839   0.09195   0.11975
 Alpha virt. eigenvalues --    0.14379   0.15166   0.15446   0.16364   0.18231
 Alpha virt. eigenvalues --    0.18591   0.19648   0.21562   0.26032   0.27502

  Beta  occ. eigenvalues --  -19.12800 -10.27622 -10.21162 -10.21064 -10.21058
  Beta  occ. eigenvalues --  -10.20847 -10.20292 -10.20228 -10.18524  -0.99250
  Beta  occ. eigenvalues --   -0.86518  -0.78067  -0.75920  -0.72546  -0.64716
  Beta  occ. eigenvalues --   -0.61035  -0.55795  -0.51122  -0.46889  -0.45937
  Beta  occ. eigenvalues --   -0.44427  -0.43790  -0.43169  -0.40134  -0.38808
  Beta  occ. eigenvalues --   -0.38076  -0.36641  -0.34537  -0.33665  -0.26739
  Beta  occ. eigenvalues --   -0.25905  -0.24348
  Beta virt. eigenvalues --   -0.07607  -0.01176   0.03839   0.09195   0.11975
  Beta virt. eigenvalues --    0.14379   0.15166   0.15446   0.16364   0.18231
  Beta virt. eigenvalues --    0.18591   0.19648   0.21562   0.26032   0.27502

 Mulliken charges and spin densities:
               1          2
     1  C    0.359223   0.000001
     2  O   -0.560699  -0.000001
     3  C   -0.387266  -0.000000
     4  H    0.138178   0.000000
     5  H    0.138161   0.000000
     6  H    0.135148   0.000000
     7  C    0.068406  -0.000002
     8  C   -0.095105   0.000001
     9  C   -0.111155   0.000002
    10  C   -0.098931  -0.000001
    11  H    0.119076  -0.000000
    12  C   -0.104012  -0.000002
    13  H    0.121799  -0.000000
    14  C   -0.077444   0.000002
    15  H    0.116016   0.000000
    16  H    0.116208   0.000000
    17  H    0.122396  -0.000000
 Sum of Mulliken charges =  -0.00000  -0.00000

 Dipole moment (field-independent basis, Debye):
    X=              3.6979    Y=              3.3631    Z=              0.0001  Tot=              4.9985
 Quadrupole moment (field-independent basis, Debye-Ang):
   XX=            -50.6331   YY=            -49.5452   ZZ=            -54.0449
   XY=             -7.9342   XZ=             -0.0002   YZ=              0.0002

 Normal termination of Gaussian 16 at Fri May 10 12:40:23 2019.
