 Gaussian 16, Revision A.03,
 Gaussian 16:  ES64L-G16RevA.03 25-Dec-2016

 ----------------------------------------------------------------------
 #p opt ub3lyp/6-31g(d,p) scrf=(iefpcm,solvent=acetonitrile) guess=(mix
 ,always) empiricaldispersion=gd3
 ----------------------------------------------------------------------

 -------------------
 Title Card Required
 -------------------
 Symbolic Z-matrix:
 Charge =  0 Multiplicity = 1

 SCF Done:  E(UB3LYP) =  -881.685728113     A.U. after   20 cycles
 SCF Done:  E(UB3LYP) =  -881.692801954     A.U. after   20 cycles
 SCF Done:  E(UB3LYP) =  -881.694641008     A.U. after   20 cycles
 SCF Done:  E(UB3LYP) =  -881.693712176     A.U. after   22 cycles
 SCF Done:  E(UB3LYP) =  -881.695093477     A.U. after   20 cycles
 SCF Done:  E(UB3LYP) =  -881.695755491     A.U. after   20 cycles
 SCF Done:  E(UB3LYP) =  -881.696192266     A.U. after   20 cycles
 SCF Done:  E(UB3LYP) =  -881.696634544     A.U. after   20 cycles
 SCF Done:  E(UB3LYP) =  -881.696938156     A.U. after   20 cycles
 SCF Done:  E(UB3LYP) =  -881.697203262     A.U. after   20 cycles
 SCF Done:  E(UB3LYP) =  -881.702141956     A.U. after   21 cycles
 SCF Done:  E(UB3LYP) =  -881.702143492     A.U. after   21 cycles
 SCF Done:  E(UB3LYP) =  -881.702144310     A.U. after   21 cycles
 SCF Done:  E(UB3LYP) =  -881.702144813     A.U. after   21 cycles
 SCF Done:  E(UB3LYP) =  -881.702145478     A.U. after   21 cycles
 SCF Done:  E(UB3LYP) =  -881.702146741     A.U. after   21 cycles
 SCF Done:  E(UB3LYP) =  -881.702148907     A.U. after   21 cycles
 SCF Done:  E(UB3LYP) =  -881.702150994     A.U. after   21 cycles
 SCF Done:  E(UB3LYP) =  -881.702151639     A.U. after   21 cycles
 SCF Done:  E(UB3LYP) =  -881.702151783     A.U. after   21 cycles
 Optimization completed.
    -- Stationary point found.

                         Standard orientation:
 ---------------------------------------------------------------------
 Center     Atomic      Atomic             Coordinates (Angstroms)
 Number     Number       Type             X           Y           Z
 ---------------------------------------------------------------------
      1          6           0        0.857720   -1.084790    0.850954
      2          1           0       -2.127852   -1.998359   -0.080174
      3          6           0       -0.445538   -0.947105   -0.056402
      4          8           0       -1.318915   -1.935455    0.500149
      5          8           0        1.207401   -2.474379    0.831521
      6          7           0       -4.108500   -0.838661   -1.122607
      7          1           0       -4.965257   -0.614838   -1.662500
      8          7           0       -3.604516   -1.954518   -1.113120
      9          1           0        0.345970   -2.925959    0.866673
     10          1           0       -3.723316   -0.029615   -0.592553
     11          6           0        0.563272   -0.699891    2.311034
     12          1           0        0.290923    0.350037    2.429387
     13          1           0       -0.263606   -1.308414    2.683101
     14          1           0        1.452282   -0.902378    2.913609
     15          6           0       -0.136184   -1.337211   -1.511763
     16          1           0       -1.056455   -1.316281   -2.101786
     17          1           0        0.591124   -0.673172   -1.980532
     18          1           0        0.271211   -2.349413   -1.526386
     19          6           0        2.039959   -0.299266    0.288754
     20          6           0        3.013714   -0.942220   -0.489152
     21          6           0        2.179316    1.077827    0.519436
     22          6           0        4.088215   -0.231359   -1.026448
     23          1           0        2.921178   -2.006650   -0.665578
     24          6           0        3.250962    1.791501   -0.020222
     25          1           0        1.443661    1.606978    1.113469
     26          6           0        4.211332    1.140393   -0.796593
     27          1           0        4.830604   -0.752151   -1.624804
     28          1           0        3.333995    2.857742    0.169989
     29          1           0        5.046897    1.694676   -1.213997
     30          6           0       -1.089999    0.439391    0.034968
     31          6           0       -2.107171    0.675163    0.975349
     32          6           0       -0.707541    1.499285   -0.800745
     33          6           0       -2.719579    1.927145    1.078971
     34          1           0       -2.413872   -0.137691    1.623623
     35          6           0       -1.316340    2.751663   -0.697676
     36          1           0        0.077781    1.357326   -1.533311
     37          6           0       -2.326152    2.972389    0.240563
     38          1           0       -3.504151    2.081488    1.814045
     39          1           0       -1.001586    3.554783   -1.357644
     40          1           0       -2.802220    3.945312    0.315916
 ---------------------------------------------------------------------

 The electronic state is 1-A.
 Alpha  occ. eigenvalues --  -19.13505 -19.13186 -14.45562 -14.36195 -10.24633
 Alpha  occ. eigenvalues --  -10.24484 -10.19786 -10.19434 -10.19315 -10.19256
 Alpha  occ. eigenvalues --  -10.19239 -10.19117 -10.18994 -10.18796 -10.18740
 Alpha  occ. eigenvalues --  -10.18688 -10.18638 -10.18289 -10.16958 -10.16744
 Alpha  occ. eigenvalues --   -1.04696  -1.02812  -0.99363  -0.85803  -0.85041
 Alpha  occ. eigenvalues --   -0.78822  -0.75636  -0.74724  -0.74082  -0.72174
 Alpha  occ. eigenvalues --   -0.72058  -0.71663  -0.64028  -0.62087  -0.60498
 Alpha  occ. eigenvalues --   -0.59719  -0.58888  -0.57121  -0.55498  -0.52744
 Alpha  occ. eigenvalues --   -0.50538  -0.48992  -0.48274  -0.45840  -0.44929
 Alpha  occ. eigenvalues --   -0.44596  -0.44263  -0.43740  -0.43107  -0.42087
 Alpha  occ. eigenvalues --   -0.41988  -0.41658  -0.41145  -0.40472  -0.39415
 Alpha  occ. eigenvalues --   -0.38012  -0.37443  -0.36885  -0.36654  -0.36175
 Alpha  occ. eigenvalues --   -0.35166  -0.34621  -0.33961  -0.33432  -0.32760
 Alpha  occ. eigenvalues --   -0.30876  -0.27294  -0.26973  -0.25911  -0.24918
 Alpha  occ. eigenvalues --   -0.24303  -0.23710  -0.21755
 Alpha virt. eigenvalues --   -0.05937  -0.01181  -0.00893  -0.00196   0.00459
 Alpha virt. eigenvalues --    0.07475   0.09282   0.09834   0.11500   0.12902
 Alpha virt. eigenvalues --    0.13457   0.13885   0.14042   0.14581   0.15181

  Beta  occ. eigenvalues --  -19.13505 -19.13186 -14.45562 -14.36195 -10.24633
  Beta  occ. eigenvalues --  -10.24484 -10.19786 -10.19434 -10.19315 -10.19256
  Beta  occ. eigenvalues --  -10.19239 -10.19117 -10.18994 -10.18796 -10.18740
  Beta  occ. eigenvalues --  -10.18688 -10.18638 -10.18289 -10.16958 -10.16744
  Beta  occ. eigenvalues --   -1.04696  -1.02812  -0.99363  -0.85803  -0.85041
  Beta  occ. eigenvalues --   -0.78822  -0.75636  -0.74724  -0.74082  -0.72174
  Beta  occ. eigenvalues --   -0.72058  -0.71663  -0.64028  -0.62087  -0.60498
  Beta  occ. eigenvalues --   -0.59719  -0.58888  -0.57121  -0.55498  -0.52744
  Beta  occ. eigenvalues --   -0.50538  -0.48992  -0.48274  -0.45840  -0.44929
  Beta  occ. eigenvalues --   -0.44596  -0.44263  -0.43740  -0.43107  -0.42087
  Beta  occ. eigenvalues --   -0.41988  -0.41658  -0.41145  -0.40472  -0.39415
  Beta  occ. eigenvalues --   -0.38012  -0.37443  -0.36885  -0.36654  -0.36175
  Beta  occ. eigenvalues --   -0.35166  -0.34621  -0.33961  -0.33432  -0.32760
  Beta  occ. eigenvalues --   -0.30876  -0.27294  -0.26973  -0.25911  -0.24918
  Beta  occ. eigenvalues --   -0.24303  -0.23710  -0.21755
  Beta virt. eigenvalues --   -0.05937  -0.01181  -0.00893  -0.00196   0.00459
  Beta virt. eigenvalues --    0.07475   0.09282   0.09834   0.11500   0.12902
  Beta virt. eigenvalues --    0.13457   0.13885   0.14042   0.14581   0.15181

 Mulliken charges and spin densities:
               1          2
     1  C    0.250529  -0.000000
     2  H    0.335960   0.000000
     3  C    0.225261   0.000000
     4  O   -0.635575  -0.000000
     5  O   -0.600885   0.000000
     6  N   -0.184384   0.000001
     7  H    0.301205  -0.000000
     8  N   -0.336382  -0.000001
     9  H    0.322734  -0.000000
    10  H    0.292139  -0.000000
    11  C   -0.324197   0.000000
    12  H    0.108289  -0.000000
    13  H    0.111692  -0.000000
    14  H    0.105629  -0.000000
    15  C   -0.332142  -0.000000
    16  H    0.105045   0.000000
    17  H    0.113481   0.000000
    18  H    0.110701   0.000000
    19  C    0.080140   0.000000
    20  C   -0.117150  -0.000000
    21  C   -0.125165  -0.000001
    22  C   -0.107699   0.000000
    23  H    0.102520  -0.000000
    24  C   -0.113654   0.000001
    25  H    0.098440   0.000000
    26  C   -0.099528  -0.000000
    27  H    0.097025   0.000000
    28  H    0.098353  -0.000000
    29  H    0.097406   0.000000
    30  C    0.087175  -0.000000
    31  C   -0.171002  -0.000000
    32  C   -0.119639   0.000000
    33  C   -0.098084   0.000000
    34  H    0.110684   0.000000
    35  C   -0.108642  -0.000000
    36  H    0.102068   0.000000
    37  C   -0.095727   0.000000
    38  H    0.105644  -0.000000
    39  H    0.104182  -0.000000
    40  H    0.103553  -0.000000
 Sum of Mulliken charges =  -0.00000  -0.00000

 Dipole moment (field-independent basis, Debye):
    X=             -5.4975    Y=              5.2910    Z=             -2.0234  Tot=              7.8938
 Quadrupole moment (field-independent basis, Debye-Ang):
   XX=            -95.4785   YY=           -121.9353   ZZ=           -116.5985
   XY=             -5.4658   XZ=             -1.3956   YZ=             -0.1832

 1\1\GINC-BLG9226\FOpt\UB3LYP\6-31G(d,p)\C16H20N2O2\RZK\11-Jun-2019\0\\
 #p opt ub3lyp/6-31g(d,p) scrf=(iefpcm,solvent=acetonitrile) guess=(mix
 ,always) empiricaldispersion=gd3\\Title Card Required\\0,1\C,-0.711424
 7627,-1.2402137992,-0.8923268908\H,2.3564992463,-1.736391423,0.0858864
 619\C,0.5478554919,-0.9228927113,0.0319311166\O,1.5550179079,-1.786439
 2981,-0.5059194002\O,-0.8699688197,-2.6642588492,-0.8684007907\N,4.146
 5054573,-0.314068898,1.147680748\H,4.9571240844,0.0263453605,1.6977989
 758\N,3.7984511529,-1.4879536967,1.1387338659\H,0.0450948295,-2.995122

 Normal termination of Gaussian 16 at Tue Jun 11 19:45:09 2019.
