 Gaussian 16, Revision B.01,
 Gaussian 16:  ES64L-G16RevB.01 20-Dec-2017

 ----------------------------------------------------------------------
 #p td=(nstates=24) ub3lyp/6-31g(d,p) scrf=(iefpcm,solvent=acetonitrile
 ) guess=(core,mix) empiricaldispersion=gd3
 ----------------------------------------------------------------------

 -------------------
 Title Card Required
 -------------------
 Symbolic Z-matrix:
 Charge =  0 Multiplicity = 1

                         Standard orientation:
 ---------------------------------------------------------------------
 Center     Atomic      Atomic             Coordinates (Angstroms)
 Number     Number       Type             X           Y           Z
 ---------------------------------------------------------------------
      1          6           0       -0.060921   -1.873512    0.645917
      2          6           0       -2.709361   -0.010400   -0.416587
      3          8           0       -3.464273   -0.243331    0.522822
      4          8           0       -0.686544   -2.516338   -0.193889
      5          6           0       -0.590049   -1.745309    2.058644
      6          1           0        0.129016   -2.144621    2.781296
      7          1           0       -0.758850   -0.693322    2.306807
      8          1           0       -1.531584   -2.288709    2.134602
      9          6           0       -2.887627   -0.713773   -1.745200
     10          1           0       -2.981057    0.005389   -2.564978
     11          1           0       -2.015617   -1.344402   -1.944055
     12          1           0       -3.780593   -1.337803   -1.699308
     13          6           0        1.223811   -1.199566    0.287918
     14          6           0        1.725636   -1.361920   -1.014173
     15          6           0        1.926867   -0.394857    1.196524
     16          6           0        2.903939   -0.732737   -1.400711
     17          1           0        1.169876   -1.982506   -1.708641
     18          6           0        3.106927    0.239095    0.807591
     19          1           0        1.553948   -0.247629    2.203638
     20          6           0        3.596626    0.071845   -0.488962
     21          1           0        3.283870   -0.863037   -2.409441
     22          1           0        3.640448    0.866394    1.514832
     23          1           0        4.514708    0.567430   -0.790326
     24          6           0       -1.582892    0.963098   -0.262130
     25          6           0       -1.449064    1.645456    0.959079
     26          6           0       -0.644138    1.194871   -1.279214
     27          6           0       -0.396803    2.532306    1.162130
     28          1           0       -2.181490    1.459884    1.737393
     29          6           0        0.410839    2.083354   -1.075440
     30          1           0       -0.718054    0.670298   -2.224956
     31          6           0        0.538079    2.749799    0.144047
     32          1           0       -0.299112    3.051040    2.110882
     33          1           0        1.143275    2.239546   -1.860447
     34          1           0        1.366539    3.432904    0.304654
 ---------------------------------------------------------------------

 SCF Done:  E(UB3LYP) =  -769.865293053     A.U. after   24 cycles

 Excitation energies and oscillator strengths:

 Excited State   1:  3.000-A      3.3034 eV  375.32 nm  f=0.0000  <S**2>=2.000
     60A -> 65A        0.20237
     60A -> 66A        0.15137
     62A -> 65A        0.43332
     62A -> 66A        0.29488
     63A -> 65A       -0.20979
     64A -> 65A        0.16776
     64A -> 66A        0.14093
     60B -> 65B       -0.20237
     60B -> 66B       -0.15137
     62B -> 65B       -0.43332
     62B -> 66B       -0.29488
     63B -> 65B        0.20979
     64B -> 65B       -0.16775
     64B -> 66B       -0.14093
 This state for optimization and/or second-order correction.
 Total Energy, E(TD-HF/TD-DFT) =  -769.743895333
 Copying the excited state density for this state as the 1-particle RhoCI density.

 Excited State   2:  3.000-A      3.3042 eV  375.23 nm  f=0.0000  <S**2>=2.000
     59A -> 66A        0.13202
     60A -> 66A        0.11280
     62A -> 65A        0.16109
     63A -> 65A        0.35561
     63A -> 66A       -0.43865
     64A -> 65A        0.21703
     64A -> 66A       -0.10510
     59B -> 66B       -0.13202
     60B -> 66B       -0.11280
     62B -> 65B       -0.16109
     63B -> 65B       -0.35561
     63B -> 66B        0.43865
     64B -> 65B       -0.21703
     64B -> 66B        0.10510

 Excited State   3:  3.000-A      3.3315 eV  372.15 nm  f=0.0000  <S**2>=2.000
     59A -> 66A       -0.18726
     60A -> 65A       -0.18590
     60A -> 66A       -0.20869
     61A -> 65A       -0.28761
     62A -> 65A        0.27869
     62A -> 66A        0.15961
     63A -> 66A       -0.22050
     64A -> 65A       -0.27339
     64A -> 67A        0.11465
     59B -> 66B        0.18726
     60B -> 65B        0.18590
     60B -> 66B        0.20869
     61B -> 65B        0.28762
     62B -> 65B       -0.27869
     62B -> 66B       -0.15961
     63B -> 66B        0.22050
     64B -> 65B        0.27339
     64B -> 67B       -0.11465

 Excited State   4:  3.000-A      3.3404 eV  371.16 nm  f=0.0000  <S**2>=2.000
     59A -> 65A       -0.24352
     59A -> 67A        0.11380
     60A -> 65A       -0.27196
     60A -> 66A       -0.10209
     61A -> 65A        0.11085
     61A -> 66A       -0.29622
     61A -> 68A        0.10919
     62A -> 65A        0.16276
     63A -> 65A       -0.16449
     63A -> 66A        0.13102
     64A -> 66A       -0.30256
     64A -> 68A       -0.12907
     59B -> 65B        0.24352
     59B -> 67B       -0.11380
     60B -> 65B        0.27196
     60B -> 66B        0.10209
     61B -> 65B       -0.11085
     61B -> 66B        0.29622
     61B -> 68B       -0.10919
     62B -> 65B       -0.16276
     63B -> 65B        0.16449
     63B -> 66B       -0.13102
     64B -> 66B        0.30256
     64B -> 68B        0.12907

 Excited State   5:  1.000-A      3.8137 eV  325.10 nm  f=0.0001  <S**2>=0.000
     61A -> 66A        0.10757
     62A -> 65A       -0.25361
     62A -> 66A       -0.22720
     63A -> 65A        0.45986
     63A -> 66A       -0.37918
     61B -> 66B        0.10757
     62B -> 65B       -0.25362
     62B -> 66B       -0.22720
     63B -> 65B        0.45986
     63B -> 66B       -0.37918

 Excited State   6:  1.000-A      3.8220 eV  324.40 nm  f=0.0001  <S**2>=0.000
     61A -> 65A       -0.17031
     62A -> 65A        0.51874
     62A -> 66A        0.23028
     63A -> 65A        0.15053
     63A -> 66A       -0.32831
     61B -> 65B       -0.17031
     62B -> 65B        0.51874
     62B -> 66B        0.23028
     63B -> 65B        0.15053
     63B -> 66B       -0.32831

 Excited State   7:  3.000-A      3.9108 eV  317.03 nm  f=0.0000  <S**2>=2.000
     59A -> 66A       -0.20453
     60A -> 65A        0.23825
     60A -> 66A        0.25077
     61A -> 65A        0.27125
     62A -> 65A        0.11558
     64A -> 65A       -0.44274
     64A -> 66A       -0.12871
     59B -> 66B        0.20453
     60B -> 65B       -0.23825
     60B -> 66B       -0.25077
     61B -> 65B       -0.27126
     62B -> 65B       -0.11558
     64B -> 65B        0.44274
     64B -> 66B        0.12871

 Excited State   8:  3.000-A      3.9577 eV  313.27 nm  f=0.0000  <S**2>=2.000
     59A -> 65A       -0.28059
     60A -> 65A        0.24005
     61A -> 65A       -0.25605
     61A -> 66A        0.31644
     62A -> 66A        0.13654
     64A -> 66A       -0.37551
     59B -> 65B        0.28059
     60B -> 65B       -0.24005
     61B -> 65B        0.25605
     61B -> 66B       -0.31644
     62B -> 66B       -0.13654
     64B -> 66B        0.37551

 Excited State   9:  3.000-A      4.4062 eV  281.39 nm  f=0.0000  <S**2>=2.000
     59A -> 68A       -0.27144
     60A -> 65A        0.11961
     60A -> 68A        0.19337
     61A -> 65A        0.15531
     61A -> 67A       -0.30446
     61A -> 68A       -0.16698
     62A -> 67A       -0.11844
     64A -> 65A        0.18593
     64A -> 67A        0.37444
     59B -> 68B        0.27144
     60B -> 65B       -0.11961
     60B -> 68B       -0.19337
     61B -> 65B       -0.15531
     61B -> 67B        0.30446
     61B -> 68B        0.16698
     62B -> 67B        0.11844
     64B -> 65B       -0.18593
     64B -> 67B       -0.37444

 Excited State  10:  3.000-A      4.4331 eV  279.68 nm  f=0.0000  <S**2>=2.000
     59A -> 67A        0.29316
     60A -> 65A        0.19088
     60A -> 67A       -0.22347
     60A -> 68A        0.10199
     61A -> 67A        0.18796
     61A -> 68A        0.26201
     62A -> 68A        0.10146
     64A -> 66A        0.16030
     64A -> 67A        0.10215
     64A -> 68A       -0.35437
     59B -> 67B       -0.29316
     60B -> 65B       -0.19088
     60B -> 67B        0.22347
     60B -> 68B       -0.10199
     61B -> 67B       -0.18796
     61B -> 68B       -0.26201
     62B -> 68B       -0.10146
     64B -> 66B       -0.16030
     64B -> 67B       -0.10215
     64B -> 68B        0.35437

 Excited State  11:  1.000-A      4.4649 eV  277.68 nm  f=0.0049  <S**2>=0.000
     61A -> 65A       -0.15753
     64A -> 65A        0.65327
     61B -> 65B       -0.15753
     64B -> 65B        0.65327

 Excited State  12:  3.000-A      4.6133 eV  268.75 nm  f=0.0000  <S**2>=2.000
     62A -> 65A        0.13381
     63A -> 65A        0.50882
     63A -> 66A        0.44166
     62B -> 65B       -0.13380
     63B -> 65B       -0.50878
     63B -> 66B       -0.44163

 Excited State  13:  1.000-A      4.6155 eV  268.63 nm  f=0.0089  <S**2>=0.000
     61A -> 65A        0.28371
     62A -> 65A        0.22674
     63A -> 65A        0.41512
     63A -> 66A        0.38336
     64A -> 66A        0.15144
     61B -> 65B        0.28371
     62B -> 65B        0.22675
     63B -> 65B        0.41515
     63B -> 66B        0.38339
     64B -> 66B        0.15144

 Excited State  14:  1.000-A      4.6419 eV  267.10 nm  f=0.0210  <S**2>=0.000
     60A -> 65A       -0.18829
     61A -> 65A        0.39998
     62A -> 66A       -0.14935
     63A -> 65A       -0.27299
     63A -> 66A       -0.27901
     64A -> 66A        0.30409
     60B -> 65B       -0.18829
     61B -> 65B        0.39998
     62B -> 66B       -0.14935
     63B -> 65B       -0.27299
     63B -> 66B       -0.27901
     64B -> 66B        0.30409

 Excited State  15:  3.000-A      4.6473 eV  266.79 nm  f=0.0000  <S**2>=2.000
     61A -> 65A       -0.10909
     61A -> 66A        0.15165
     62A -> 65A        0.32800
     62A -> 66A       -0.57527
     61B -> 65B        0.10909
     61B -> 66B       -0.15165
     62B -> 65B       -0.32800
     62B -> 66B        0.57528

 Excited State  16:  1.000-A      4.6556 eV  266.31 nm  f=0.0014  <S**2>=0.000
     60A -> 65A       -0.10159
     61A -> 65A        0.10393
     61A -> 66A       -0.15295
     62A -> 65A       -0.29785
     62A -> 66A        0.55705
     63A -> 65A        0.10306
     64A -> 66A        0.19511
     60B -> 65B       -0.10159
     61B -> 65B        0.10393
     61B -> 66B       -0.15295
     62B -> 65B       -0.29784
     62B -> 66B        0.55704
     63B -> 65B        0.10306
     64B -> 66B        0.19511

 Excited State  17:  3.000-A      4.6898 eV  264.37 nm  f=0.0000  <S**2>=2.000
     59A -> 65A       -0.10555
     60A -> 65A       -0.18294
     61A -> 65A        0.42025
     61A -> 66A        0.46709
     63A -> 65A       -0.11064
     59B -> 65B        0.10555
     60B -> 65B        0.18295
     61B -> 65B       -0.42024
     61B -> 66B       -0.46708
     63B -> 65B        0.11064

 Excited State  18:  1.000-A      4.7003 eV  263.78 nm  f=0.0118  <S**2>=0.000
     60A -> 65A       -0.12886
     61A -> 65A       -0.37671
     61A -> 66A       -0.29246
     62A -> 66A       -0.20655
     64A -> 65A       -0.14715
     64A -> 66A        0.40654
     60B -> 65B       -0.12886
     61B -> 65B       -0.37672
     61B -> 66B       -0.29248
     62B -> 66B       -0.20656
     64B -> 65B       -0.14715
     64B -> 66B        0.40653

 Excited State  19:  3.000-A      4.7678 eV  260.04 nm  f=0.0000  <S**2>=2.000
     59A -> 65A        0.49901
     59A -> 66A        0.17226
     60A -> 66A       -0.18295
     61A -> 65A        0.11947
     64A -> 65A       -0.10269
     64A -> 66A       -0.34148
     59B -> 65B       -0.49901
     59B -> 66B       -0.17226
     60B -> 66B        0.18295
     61B -> 65B       -0.11947
     64B -> 65B        0.10268
     64B -> 66B        0.34148

 Excited State  20:  1.000-A      4.8176 eV  257.36 nm  f=0.0144  <S**2>=0.000
     59A -> 65A       -0.13949
     59A -> 66A       -0.16321
     60A -> 65A        0.52068
     60A -> 66A       -0.11940
     61A -> 65A        0.12056
     61A -> 66A       -0.34192
     64A -> 65A        0.10435
     59B -> 65B       -0.13949
     59B -> 66B       -0.16322
     60B -> 65B        0.52068
     60B -> 66B       -0.11940
     61B -> 65B        0.12056
     61B -> 66B       -0.34192
     64B -> 65B        0.10435

 Excited State  21:  3.000-A      4.8537 eV  255.44 nm  f=0.0000  <S**2>=2.000
     59A -> 65A        0.12092
     59A -> 66A        0.21151
     60A -> 65A       -0.34919
     60A -> 66A        0.51111
     61A -> 65A       -0.12771
     64A -> 65A       -0.11997
     59B -> 65B       -0.12092
     59B -> 66B       -0.21150
     60B -> 65B        0.34918
     60B -> 66B       -0.51111
     61B -> 65B        0.12771
     64B -> 65B        0.11997

 Excited State  22:  1.000-A      4.8680 eV  254.69 nm  f=0.0511  <S**2>=0.000
     59A -> 65A        0.45553
     60A -> 65A       -0.12671
     61A -> 66A       -0.38210
     64A -> 66A       -0.30009
     59B -> 65B        0.45553
     60B -> 65B       -0.12671
     61B -> 66B       -0.38210
     64B -> 66B       -0.30009

 Excited State  23:  3.000-A      4.8970 eV  253.18 nm  f=0.0000  <S**2>=2.000
     59A -> 65A       -0.18090
     59A -> 66A        0.52314
     60A -> 66A       -0.13996
     61A -> 67A       -0.10416
     64A -> 65A       -0.28470
     64A -> 66A        0.21026
     59B -> 65B        0.18089
     59B -> 66B       -0.52314
     60B -> 66B        0.13996
     61B -> 67B        0.10416
     64B -> 65B        0.28470
     64B -> 66B       -0.21025

 Excited State  24:  1.000-A      4.9352 eV  251.23 nm  f=0.0026  <S**2>=0.000
     59A -> 65A       -0.25729
     59A -> 66A       -0.23601
     60A -> 65A       -0.10840
     60A -> 66A        0.56537
     59B -> 65B       -0.25729
     59B -> 66B       -0.23601
     60B -> 65B       -0.10840
     60B -> 66B        0.56537

 The electronic state is 1-A.
 Alpha  occ. eigenvalues --  -19.14131 -19.13838 -10.28057 -10.27846 -10.20093
 Alpha  occ. eigenvalues --  -10.20065 -10.20017 -10.20014 -10.19998 -10.19989
 Alpha  occ. eigenvalues --  -10.19700 -10.19677 -10.19616 -10.19598 -10.19569
 Alpha  occ. eigenvalues --  -10.19538 -10.18396 -10.18144  -1.03870  -1.03563
 Alpha  occ. eigenvalues --   -0.86236  -0.85917  -0.77302  -0.77173  -0.75234
 Alpha  occ. eigenvalues --   -0.75098  -0.72875  -0.72655  -0.62930  -0.62808
 Alpha  occ. eigenvalues --   -0.60765  -0.60716  -0.55171  -0.55086  -0.51204
 Alpha  occ. eigenvalues --   -0.50878  -0.46490  -0.46378  -0.46067  -0.45820
 Alpha  occ. eigenvalues --   -0.45183  -0.44551  -0.44446  -0.43142  -0.42561
 Alpha  occ. eigenvalues --   -0.42525  -0.41514  -0.41442  -0.38884  -0.38710
 Alpha  occ. eigenvalues --   -0.38197  -0.37419  -0.35785  -0.35745  -0.35276
 Alpha  occ. eigenvalues --   -0.34766  -0.34540  -0.34482  -0.26722  -0.25946
 Alpha  occ. eigenvalues --   -0.25651  -0.25453  -0.25187  -0.24957
 Alpha virt. eigenvalues --   -0.06061  -0.05388  -0.01064  -0.00506   0.03759
 Alpha virt. eigenvalues --    0.04293   0.08692   0.10133   0.11971   0.12088
 Alpha virt. eigenvalues --    0.14721   0.14860   0.15313   0.15685   0.16168

  Beta  occ. eigenvalues --  -19.14131 -19.13838 -10.28057 -10.27846 -10.20093
  Beta  occ. eigenvalues --  -10.20065 -10.20017 -10.20014 -10.19998 -10.19989
  Beta  occ. eigenvalues --  -10.19700 -10.19677 -10.19616 -10.19598 -10.19569
  Beta  occ. eigenvalues --  -10.19538 -10.18396 -10.18144  -1.03870  -1.03563
  Beta  occ. eigenvalues --   -0.86236  -0.85917  -0.77302  -0.77173  -0.75234
  Beta  occ. eigenvalues --   -0.75098  -0.72875  -0.72655  -0.62930  -0.62808
  Beta  occ. eigenvalues --   -0.60765  -0.60716  -0.55171  -0.55086  -0.51204
  Beta  occ. eigenvalues --   -0.50878  -0.46490  -0.46378  -0.46067  -0.45820
  Beta  occ. eigenvalues --   -0.45183  -0.44551  -0.44446  -0.43142  -0.42561
  Beta  occ. eigenvalues --   -0.42525  -0.41514  -0.41442  -0.38884  -0.38710
  Beta  occ. eigenvalues --   -0.38197  -0.37419  -0.35785  -0.35745  -0.35276
  Beta  occ. eigenvalues --   -0.34766  -0.34540  -0.34482  -0.26722  -0.25946
  Beta  occ. eigenvalues --   -0.25651  -0.25453  -0.25187  -0.24957
  Beta virt. eigenvalues --   -0.06061  -0.05388  -0.01064  -0.00506   0.03759
  Beta virt. eigenvalues --    0.04293   0.08692   0.10133   0.11971   0.12088
  Beta virt. eigenvalues --    0.14721   0.14860   0.15313   0.15685   0.16168

 Mulliken charges and spin densities:
               1          2
     1  C    0.400018   0.000000
     2  C    0.405271  -0.000000
     3  O   -0.509845   0.000000
     4  O   -0.509418  -0.000000
     5  C   -0.399683  -0.000000
     6  H    0.143150   0.000000
     7  H    0.147028   0.000000
     8  H    0.130406   0.000000
     9  C   -0.403787   0.000000
    10  H    0.137753  -0.000000
    11  H    0.157144  -0.000000
    12  H    0.125612  -0.000000
    13  C    0.060145  -0.000001
    14  C   -0.107182   0.000001
    15  C   -0.116495   0.000001
    16  C   -0.099695  -0.000001
    17  H    0.109858  -0.000000
    18  C   -0.101209  -0.000001
    19  H    0.109429  -0.000000
    20  C   -0.086320   0.000001
    21  H    0.107949   0.000000
    22  H    0.108500   0.000000
    23  H    0.110238  -0.000000
    24  C    0.037688   0.000001
    25  C   -0.115352  -0.000001
    26  C   -0.118708  -0.000001
    27  C   -0.099895   0.000001
    28  H    0.111782   0.000000
    29  C   -0.088534   0.000001
    30  H    0.109590   0.000000
    31  C   -0.080582  -0.000001
    32  H    0.108246  -0.000000
    33  H    0.107471  -0.000000
    34  H    0.109424   0.000000
 Sum of Mulliken charges =  -0.00000  -0.00000

 Dipole moment (field-independent basis, Debye):
    X=              5.6807    Y=              3.5210    Z=             -0.4253  Tot=              6.6969
 Quadrupole moment (field-independent basis, Debye-Ang):
   XX=           -109.6885   YY=           -108.1917   ZZ=            -91.5532
   XY=              1.1767   XZ=              3.7099   YZ=              0.6194

 Normal termination of Gaussian 16 at Fri May 10 18:17:31 2019.
