 Gaussian 16, Revision A.03,
 Gaussian 16:  ES64L-G16RevA.03 25-Dec-2016

 ----------------------------------------------------------------------
 #p td=(50-50,nstates=12) rb3lyp/6-31g(d,p) scrf=(iefpcm,solvent=aceton
 itrile) empiricaldispersion=gd3
 ----------------------------------------------------------------------

 -------------------
 Title Card Required
 -------------------
 Symbolic Z-matrix:
 Charge =  0 Multiplicity = 1

                         Standard orientation:
 ---------------------------------------------------------------------
 Center     Atomic      Atomic             Coordinates (Angstroms)
 Number     Number       Type             X           Y           Z
 ---------------------------------------------------------------------
      1          6           0       -1.697308   -0.201402   -0.000018
      2          8           0       -2.217905   -1.312239   -0.000029
      3          6           0       -2.553274    1.049452   -0.000024
      4          1           0       -2.343318    1.663518    0.882011
      5          1           0       -2.342868    1.663956   -0.881626
      6          1           0       -3.604616    0.761060   -0.000401
      7          6           0       -0.206967   -0.056710    0.000057
      8          6           0        0.578022   -1.222025    0.000049
      9          6           0        0.428351    1.195472    0.000075
     10          6           0        1.966970   -1.139173   -0.000003
     11          1           0        0.075953   -2.183491    0.000004
     12          6           0        1.820979    1.278019   -0.000002
     13          1           0       -0.155236    2.109523   -0.000039
     14          6           0        2.591420    0.112896   -0.000029
     15          1           0        2.565010   -2.045346   -0.000081
     16          1           0        2.303854    2.250264   -0.000141
     17          1           0        3.675304    0.179252   -0.000125
 ---------------------------------------------------------------------

 SCF Done:  E(RB3LYP) =  -384.925582213     A.U. after   12 cycles

 Excitation energies and oscillator strengths:

 Excited State   1:      Triplet-A      3.3110 eV  374.47 nm  f=0.0000  <S**2>=2.000
      32 -> 33         0.68663
      32 -> 35        -0.16374
 This state for optimization and/or second-order correction.
 Total Energy, E(TD-HF/TD-DFT) =  -384.803906564
 Copying the excited state density for this state as the 1-particle RhoCI density.

 Excited State   2:      Triplet-A      3.3518 eV  369.91 nm  f=0.0000  <S**2>=2.000
      30 -> 33         0.42204
      30 -> 34         0.18670
      31 -> 33         0.47600
      31 -> 34        -0.20680

 Excited State   3:      Singlet-A      3.8273 eV  323.95 nm  f=0.0000  <S**2>=0.000
      32 -> 33         0.69592
      32 -> 35        -0.12039

 Excited State   4:      Triplet-A      3.9958 eV  310.29 nm  f=0.0000  <S**2>=2.000
      30 -> 33         0.50817
      31 -> 33        -0.46865

 Excited State   5:      Triplet-A      4.4595 eV  278.02 nm  f=0.0000  <S**2>=2.000
      30 -> 33         0.20666
      30 -> 34        -0.41507
      31 -> 33         0.18930
      31 -> 34         0.48816

 Excited State   6:      Singlet-A      4.7419 eV  261.47 nm  f=0.0246  <S**2>=0.000
      30 -> 33        -0.43036
      30 -> 34         0.17818
      31 -> 33         0.50448
      31 -> 34         0.16863

 Excited State   7:      Triplet-A      5.1489 eV  240.80 nm  f=0.0000  <S**2>=2.000
      30 -> 34         0.52834
      31 -> 34         0.44694

 Excited State   8:      Singlet-A      5.1799 eV  239.36 nm  f=0.3009  <S**2>=0.000
      30 -> 33         0.51584
      31 -> 33         0.45662
      31 -> 34        -0.11864

 Excited State   9:      Triplet-A      5.3905 eV  230.01 nm  f=0.0000  <S**2>=2.000
      22 -> 33         0.14873
      26 -> 33        -0.11151
      28 -> 33         0.56506
      28 -> 35        -0.13755
      30 -> 35        -0.20434
      31 -> 34        -0.11632
      31 -> 35        -0.24118

 Excited State  10:      Triplet-A      5.7727 eV  214.78 nm  f=0.0000  <S**2>=2.000
      32 -> 34         0.70395

 Excited State  11:      Singlet-A      5.8002 eV  213.76 nm  f=0.0000  <S**2>=0.000
      32 -> 34         0.70592

 Excited State  12:      Singlet-A      6.3130 eV  196.39 nm  f=0.1251  <S**2>=0.000
      30 -> 33         0.17054
      30 -> 34         0.42862
      30 -> 35        -0.20973
      31 -> 33        -0.14512
      31 -> 34         0.41431
      31 -> 35         0.21968

 Excited State  13:      Triplet-A      6.4404 eV  192.51 nm  f=0.0000  <S**2>=2.000
      27 -> 33         0.22805
      29 -> 33         0.45800
      32 -> 33        -0.12413
      32 -> 35        -0.45738

 Excited State  14:      Triplet-A      6.4623 eV  191.86 nm  f=0.0000  <S**2>=2.000
      27 -> 33        -0.29754
      29 -> 33         0.51438
      32 -> 35         0.34795

 Excited State  15:      Triplet-A      6.5459 eV  189.41 nm  f=0.0000  <S**2>=2.000
      26 -> 33        -0.30710
      28 -> 33         0.18494
      28 -> 35        -0.13599
      30 -> 35         0.31769
      31 -> 35         0.46361

 Excited State  16:      Triplet-A      6.6208 eV  187.27 nm  f=0.0000  <S**2>=2.000
      26 -> 34        -0.16807
      28 -> 34        -0.16605
      30 -> 35         0.51437
      31 -> 35        -0.38476

 Excited State  17:      Singlet-A      6.6284 eV  187.05 nm  f=0.0001  <S**2>=0.000
      29 -> 33         0.66336
      32 -> 35        -0.21744

 Excited State  18:      Singlet-A      6.6897 eV  185.34 nm  f=0.3928  <S**2>=0.000
      30 -> 34        -0.45275
      30 -> 35        -0.14521
      31 -> 34         0.47330
      31 -> 35        -0.16026

 Excited State  19:      Singlet-A      6.7247 eV  184.37 nm  f=0.0015  <S**2>=0.000
      27 -> 33        -0.18857
      29 -> 33         0.22984
      32 -> 33         0.11176
      32 -> 35         0.62685

 Excited State  20:      Triplet-A      6.8023 eV  182.27 nm  f=0.0000  <S**2>=2.000
      27 -> 33         0.58345
      32 -> 35         0.36433

 Excited State  21:      Singlet-A      7.0255 eV  176.48 nm  f=0.0003  <S**2>=0.000
      27 -> 33         0.67341
      32 -> 35         0.19765

 Excited State  22:      Singlet-A      7.3905 eV  167.76 nm  f=0.0620  <S**2>=0.000
      28 -> 33         0.54012
      30 -> 35         0.19553
      31 -> 35         0.38167

 Excited State  23:      Singlet-A      7.6950 eV  161.12 nm  f=0.3162  <S**2>=0.000
      28 -> 34         0.11200
      30 -> 34         0.18365
      30 -> 35         0.52612
      31 -> 34         0.19805
      31 -> 35        -0.33201

 Excited State  24:      Singlet-A      7.8271 eV  158.40 nm  f=0.0030  <S**2>=0.000
      29 -> 34         0.70293

 The electronic state is 1-A.
 Alpha  occ. eigenvalues --  -19.14107 -10.28144 -10.20331 -10.20275 -10.20193
 Alpha  occ. eigenvalues --  -10.19878 -10.19825 -10.19759 -10.18673  -1.03876
 Alpha  occ. eigenvalues --   -0.86248  -0.77402  -0.75333  -0.72999  -0.63031
 Alpha  occ. eigenvalues --   -0.60900  -0.55296  -0.51197  -0.46619  -0.46038
 Alpha  occ. eigenvalues --   -0.44673  -0.44221  -0.42713  -0.41729  -0.39039
 Alpha  occ. eigenvalues --   -0.37920  -0.35933  -0.35408  -0.34693  -0.26179
 Alpha  occ. eigenvalues --   -0.25928  -0.25469
 Alpha virt. eigenvalues --   -0.05846  -0.00946   0.03844   0.09316   0.12003
 Alpha virt. eigenvalues --    0.14866   0.15453   0.15974   0.16665   0.18196
 Alpha virt. eigenvalues --    0.18907   0.20011   0.22307   0.26748   0.28928

 Mulliken charges:
               1
     1  C    0.395655
     2  O   -0.500951
     3  C   -0.401543
     4  H    0.147817
     5  H    0.147801
     6  H    0.131130
     7  C    0.046852
     8  C   -0.108694
     9  C   -0.126997
    10  C   -0.099666
    11  H    0.111488
    12  C   -0.103824
    13  H    0.112182
    14  C   -0.086075
    15  H    0.110575
    16  H    0.111473
    17  H    0.112776
 Sum of Mulliken charges =  -0.00000

 Dipole moment (field-independent basis, Debye):
    X=              2.4229    Y=              3.1682    Z=             -0.0002  Tot=              3.9885
 Quadrupole moment (field-independent basis, Debye-Ang):
   XX=            -49.8806   YY=            -49.5182   ZZ=            -53.9894
   XY=             -7.3140   XZ=             -0.0008   YZ=             -0.0002

 1\1\GINC-BELUGA3\SP\RB3LYP TD-FC\6-31G(d,p)\C8H8O1\RZK\01-Jul-2019\0\\
 #p td=(50-50,nstates=12) rb3lyp/6-31g(d,p) scrf=(iefpcm,solvent=aceton
 itrile) empiricaldispersion=gd3\\Title Card Required\\0,1\C,0,-1.69730
 8,-0.201402,-0.000018\O,0,-2.217905,-1.312239,-0.000029\C,0,-2.553274,
 1.049452,-0.000024\H,0,-2.343318,1.663518,0.882011\H,0,-2.342868,1.663
 956,-0.881626\H,0,-3.604616,0.76106,-0.000401\C,0,-0.206967,-0.05671,0
 .000057\C,0,0.578022,-1.222025,0.000049\C,0,0.428351,1.195472,0.000075
 \C,0,1.96697,-1.139173,-0.000003\H,0,0.075953,-2.183491,0.000004\C,0,1

 Normal termination of Gaussian 16 at Mon Jul  1 13:53:18 2019.
