 Gaussian 16, Revision B.01,
 Gaussian 16:  ES64L-G16RevB.01 20-Dec-2017

 ----------------------------------------------------------------------
 #p td=(50-50,nstates=12) ub3lyp/6-31g(d,p) scrf=(iefpcm,solvent=aceton
 itrile) guess=(core,mix,always) empiricaldispersion=gd3
 ----------------------------------------------------------------------

 -------------------
 Title Card Required
 -------------------
 Symbolic Z-matrix:
 Charge =  0 Multiplicity = 1

                         Standard orientation:
 ---------------------------------------------------------------------
 Center     Atomic      Atomic             Coordinates (Angstroms)
 Number     Number       Type             X           Y           Z
 ---------------------------------------------------------------------
      1          6           0       -1.697308   -0.201402   -0.000018
      2          8           0       -2.217905   -1.312239   -0.000029
      3          6           0       -2.553274    1.049452   -0.000024
      4          1           0       -2.343318    1.663518    0.882011
      5          1           0       -2.342868    1.663956   -0.881626
      6          1           0       -3.604616    0.761060   -0.000401
      7          6           0       -0.206967   -0.056710    0.000057
      8          6           0        0.578022   -1.222025    0.000049
      9          6           0        0.428351    1.195472    0.000075
     10          6           0        1.966970   -1.139173   -0.000003
     11          1           0        0.075953   -2.183491    0.000004
     12          6           0        1.820979    1.278019   -0.000002
     13          1           0       -0.155236    2.109523   -0.000039
     14          6           0        2.591420    0.112896   -0.000029
     15          1           0        2.565010   -2.045346   -0.000081
     16          1           0        2.303854    2.250264   -0.000141
     17          1           0        3.675304    0.179252   -0.000125
 ---------------------------------------------------------------------

 SCF Done:  E(UB3LYP) =  -384.925582213     A.U. after   20 cycles

 Excitation energies and oscillator strengths:

 Excited State   1:  3.000-A      3.3110 eV  374.47 nm  f=0.0000  <S**2>=2.000
     32A -> 33A       -0.68662
     32A -> 35A        0.16374
     32B -> 33B        0.68663
     32B -> 35B       -0.16374
 This state for optimization and/or second-order correction.
 Total Energy, E(TD-HF/TD-DFT) =  -384.803906825
 Copying the excited state density for this state as the 1-particle RhoCI density.

 Excited State   2:  3.000-A      3.3518 eV  369.91 nm  f=0.0000  <S**2>=2.000
     30A -> 33A       -0.42204
     30A -> 34A       -0.18671
     31A -> 33A       -0.47600
     31A -> 34A        0.20680
     30B -> 33B        0.42204
     30B -> 34B        0.18671
     31B -> 33B        0.47600
     31B -> 34B       -0.20680

 Excited State   3:  1.000-A      3.8273 eV  323.95 nm  f=0.0000  <S**2>=0.000
     32A -> 33A        0.69593
     32A -> 35A       -0.12039
     32B -> 33B        0.69592
     32B -> 35B       -0.12039

 Excited State   4:  3.000-A      3.9958 eV  310.29 nm  f=0.0000  <S**2>=2.000
     30A -> 33A       -0.50817
     31A -> 33A        0.46865
     30B -> 33B        0.50817
     31B -> 33B       -0.46865

 Excited State   5:  3.000-A      4.4595 eV  278.02 nm  f=0.0000  <S**2>=2.000
     30A -> 33A       -0.20665
     30A -> 34A        0.41507
     31A -> 33A       -0.18930
     31A -> 34A       -0.48816
     30B -> 33B        0.20665
     30B -> 34B       -0.41507
     31B -> 33B        0.18930
     31B -> 34B        0.48816

 Excited State   6:  1.000-A      4.7419 eV  261.46 nm  f=0.0246  <S**2>=0.000
     30A -> 33A       -0.43036
     30A -> 34A        0.17811
     31A -> 33A        0.50451
     31A -> 34A        0.16863
     30B -> 33B       -0.43036
     30B -> 34B        0.17811
     31B -> 33B        0.50450
     31B -> 34B        0.16863

 Excited State   7:  3.000-A      5.1489 eV  240.80 nm  f=0.0000  <S**2>=2.000
     30A -> 34A        0.52834
     31A -> 34A        0.44694
     30B -> 34B       -0.52834
     31B -> 34B       -0.44694

 Excited State   8:  1.000-A      5.1799 eV  239.36 nm  f=0.3008  <S**2>=0.000
     30A -> 33A        0.51584
     31A -> 33A        0.45662
     31A -> 34A       -0.11865
     30B -> 33B        0.51584
     31B -> 33B        0.45662
     31B -> 34B       -0.11865

 Excited State   9:  3.000-A      5.3905 eV  230.01 nm  f=0.0000  <S**2>=2.000
     22A -> 33A       -0.14872
     26A -> 33A        0.11149
     28A -> 33A       -0.56505
     28A -> 35A        0.13756
     30A -> 35A        0.20435
     31A -> 34A        0.11632
     31A -> 35A        0.24119
     22B -> 33B        0.14872
     26B -> 33B       -0.11149
     28B -> 33B        0.56505
     28B -> 35B       -0.13756
     30B -> 35B       -0.20435
     31B -> 34B       -0.11632
     31B -> 35B       -0.24120

 Excited State  10:  3.000-A      5.7727 eV  214.78 nm  f=0.0000  <S**2>=2.000
     32A -> 34A        0.70395
     32B -> 34B       -0.70395

 Excited State  11:  1.000-A      5.8002 eV  213.76 nm  f=0.0000  <S**2>=0.000
     32A -> 34A        0.70592
     32B -> 34B        0.70592

 Excited State  12:  1.000-A      6.3130 eV  196.39 nm  f=0.1251  <S**2>=0.000
     30A -> 33A        0.17053
     30A -> 34A        0.42870
     30A -> 35A       -0.20968
     31A -> 33A       -0.14513
     31A -> 34A        0.41424
     31A -> 35A        0.21969
     30B -> 33B        0.17053
     30B -> 34B        0.42870
     30B -> 35B       -0.20968
     31B -> 33B       -0.14513
     31B -> 34B        0.41424
     31B -> 35B        0.21969

 The electronic state is 1-A.
 Alpha  occ. eigenvalues --  -19.14107 -10.28144 -10.20331 -10.20275 -10.20193
 Alpha  occ. eigenvalues --  -10.19878 -10.19825 -10.19759 -10.18673  -1.03876
 Alpha  occ. eigenvalues --   -0.86248  -0.77402  -0.75333  -0.72999  -0.63031
 Alpha  occ. eigenvalues --   -0.60900  -0.55296  -0.51197  -0.46619  -0.46038
 Alpha  occ. eigenvalues --   -0.44673  -0.44221  -0.42713  -0.41729  -0.39039
 Alpha  occ. eigenvalues --   -0.37920  -0.35933  -0.35408  -0.34693  -0.26179
 Alpha  occ. eigenvalues --   -0.25928  -0.25469
 Alpha virt. eigenvalues --   -0.05846  -0.00946   0.03844   0.09316   0.12003
 Alpha virt. eigenvalues --    0.14866   0.15453   0.15974   0.16665   0.18196
 Alpha virt. eigenvalues --    0.18907   0.20011   0.22307   0.26748   0.28928

  Beta  occ. eigenvalues --  -19.14107 -10.28144 -10.20331 -10.20275 -10.20193
  Beta  occ. eigenvalues --  -10.19878 -10.19825 -10.19759 -10.18673  -1.03876
  Beta  occ. eigenvalues --   -0.86248  -0.77402  -0.75333  -0.72999  -0.63031
  Beta  occ. eigenvalues --   -0.60900  -0.55296  -0.51197  -0.46619  -0.46038
  Beta  occ. eigenvalues --   -0.44673  -0.44221  -0.42713  -0.41729  -0.39039
  Beta  occ. eigenvalues --   -0.37920  -0.35933  -0.35408  -0.34693  -0.26179
  Beta  occ. eigenvalues --   -0.25928  -0.25469
  Beta virt. eigenvalues --   -0.05846  -0.00946   0.03844   0.09316   0.12003
  Beta virt. eigenvalues --    0.14866   0.15453   0.15974   0.16665   0.18196
  Beta virt. eigenvalues --    0.18907   0.20011   0.22307   0.26748   0.28928

 Mulliken charges and spin densities:
               1          2
     1  C    0.395655  -0.000000
     2  O   -0.500951   0.000000
     3  C   -0.401543  -0.000000
     4  H    0.147817  -0.000000
     5  H    0.147801  -0.000000
     6  H    0.131130  -0.000000
     7  C    0.046852   0.000002
     8  C   -0.108694  -0.000003
     9  C   -0.126997  -0.000003
    10  C   -0.099667   0.000003
    11  H    0.111488   0.000000
    12  C   -0.103824   0.000003
    13  H    0.112182   0.000000
    14  C   -0.086075  -0.000003
    15  H    0.110575  -0.000000
    16  H    0.111472  -0.000000
    17  H    0.112776   0.000000
 Sum of Mulliken charges =  -0.00000   0.00000

 Dipole moment (field-independent basis, Debye):
    X=              2.4229    Y=              3.1682    Z=             -0.0002  Tot=              3.9885
 Quadrupole moment (field-independent basis, Debye-Ang):
   XX=            -49.8806   YY=            -49.5182   ZZ=            -53.9894
   XY=             -7.3140   XZ=             -0.0008   YZ=             -0.0002

 Normal termination of Gaussian 16 at Fri May 10 12:39:35 2019.
