 Gaussian 16, Revision B.01,
 Gaussian 16:  ES64L-G16RevB.01 20-Dec-2017

 ----------------------------------------------------------------------
 #p opt freq rb3lyp/6-31g(d,p) scrf=(iefpcm,solvent=acetonitrile) empir
 icaldispersion=gd3
 ----------------------------------------------------------------------

 -------------------
 Title Card Required
 -------------------
 Symbolic Z-matrix:
 Charge =  0 Multiplicity = 1

 SCF Done:  E(RB3LYP) =  -769.865043457     A.U. after   13 cycles
 SCF Done:  E(RB3LYP) =  -769.865119544     A.U. after   10 cycles
 SCF Done:  E(RB3LYP) =  -769.864900284     A.U. after   10 cycles
 SCF Done:  E(RB3LYP) =  -769.864917710     A.U. after   11 cycles
 SCF Done:  E(RB3LYP) =  -769.865167453     A.U. after   11 cycles
 SCF Done:  E(RB3LYP) =  -769.865165973     A.U. after    9 cycles
 SCF Done:  E(RB3LYP) =  -769.865200064     A.U. after    9 cycles
 SCF Done:  E(RB3LYP) =  -769.865212343     A.U. after    9 cycles
 SCF Done:  E(RB3LYP) =  -769.865225320     A.U. after   10 cycles
 SCF Done:  E(RB3LYP) =  -769.865219982     A.U. after   10 cycles
 SCF Done:  E(RB3LYP) =  -769.865290539     A.U. after    7 cycles
 SCF Done:  E(RB3LYP) =  -769.865290786     A.U. after    7 cycles
 SCF Done:  E(RB3LYP) =  -769.865291270     A.U. after    7 cycles
 SCF Done:  E(RB3LYP) =  -769.865291996     A.U. after    8 cycles
 SCF Done:  E(RB3LYP) =  -769.865292805     A.U. after    8 cycles
 SCF Done:  E(RB3LYP) =  -769.865293091     A.U. after    8 cycles
 SCF Done:  E(RB3LYP) =  -769.865293147     A.U. after    7 cycles
 SCF Done:  E(RB3LYP) =  -769.865293101     A.U. after    6 cycles
 SCF Done:  E(RB3LYP) =  -769.865293053     A.U. after    6 cycles
 Optimization completed.
    -- Stationary point found.
 Normal termination of Gaussian 16 at Fri May 10 12:14:44 2019.

 ----------------------------------------------------------------------
 #P Geom=AllCheck Guess=TCheck SCRF=Check GenChk RB3LYP/6-31G(d,p) Freq
 ----------------------------------------------------------------------

 Structure from the checkpoint file:  "AA.chk"
 -------------------
 Title Card Required
 -------------------
 Charge =  0 Multiplicity = 1

                         Standard orientation:
 ---------------------------------------------------------------------
 Center     Atomic      Atomic             Coordinates (Angstroms)
 Number     Number       Type             X           Y           Z
 ---------------------------------------------------------------------
      1          6           0       -0.060921   -1.873512    0.645917
      2          6           0       -2.709361   -0.010400   -0.416587
      3          8           0       -3.464273   -0.243331    0.522822
      4          8           0       -0.686544   -2.516338   -0.193889
      5          6           0       -0.590049   -1.745309    2.058644
      6          1           0        0.129016   -2.144621    2.781296
      7          1           0       -0.758850   -0.693322    2.306807
      8          1           0       -1.531584   -2.288709    2.134602
      9          6           0       -2.887627   -0.713773   -1.745200
     10          1           0       -2.981057    0.005389   -2.564978
     11          1           0       -2.015617   -1.344402   -1.944055
     12          1           0       -3.780593   -1.337803   -1.699308
     13          6           0        1.223811   -1.199566    0.287918
     14          6           0        1.725636   -1.361920   -1.014173
     15          6           0        1.926867   -0.394857    1.196524
     16          6           0        2.903939   -0.732737   -1.400711
     17          1           0        1.169876   -1.982506   -1.708641
     18          6           0        3.106927    0.239095    0.807591
     19          1           0        1.553948   -0.247629    2.203638
     20          6           0        3.596626    0.071845   -0.488962
     21          1           0        3.283870   -0.863037   -2.409441
     22          1           0        3.640448    0.866394    1.514832
     23          1           0        4.514708    0.567430   -0.790326
     24          6           0       -1.582892    0.963098   -0.262130
     25          6           0       -1.449064    1.645456    0.959079
     26          6           0       -0.644138    1.194871   -1.279214
     27          6           0       -0.396803    2.532306    1.162130
     28          1           0       -2.181490    1.459884    1.737393
     29          6           0        0.410839    2.083354   -1.075440
     30          1           0       -0.718054    0.670298   -2.224956
     31          6           0        0.538079    2.749799    0.144047
     32          1           0       -0.299112    3.051040    2.110882
     33          1           0        1.143275    2.239546   -1.860447
     34          1           0        1.366539    3.432904    0.304654
 ---------------------------------------------------------------------

 SCF Done:  E(RB3LYP) =  -769.865293053     A.U. after    1 cycles

 The electronic state is 1-A.
 Alpha  occ. eigenvalues --  -19.14130 -19.13838 -10.28057 -10.27846 -10.20093
 Alpha  occ. eigenvalues --  -10.20064 -10.20017 -10.20014 -10.19998 -10.19989
 Alpha  occ. eigenvalues --  -10.19700 -10.19677 -10.19616 -10.19598 -10.19569
 Alpha  occ. eigenvalues --  -10.19538 -10.18396 -10.18144  -1.03870  -1.03563
 Alpha  occ. eigenvalues --   -0.86236  -0.85917  -0.77302  -0.77173  -0.75234
 Alpha  occ. eigenvalues --   -0.75098  -0.72875  -0.72655  -0.62930  -0.62808
 Alpha  occ. eigenvalues --   -0.60765  -0.60716  -0.55171  -0.55086  -0.51204
 Alpha  occ. eigenvalues --   -0.50878  -0.46490  -0.46378  -0.46067  -0.45820
 Alpha  occ. eigenvalues --   -0.45183  -0.44551  -0.44446  -0.43142  -0.42561
 Alpha  occ. eigenvalues --   -0.42525  -0.41514  -0.41442  -0.38884  -0.38710
 Alpha  occ. eigenvalues --   -0.38197  -0.37419  -0.35785  -0.35745  -0.35276
 Alpha  occ. eigenvalues --   -0.34766  -0.34540  -0.34482  -0.26722  -0.25946
 Alpha  occ. eigenvalues --   -0.25651  -0.25453  -0.25187  -0.24957
 Alpha virt. eigenvalues --   -0.06061  -0.05388  -0.01064  -0.00506   0.03759
 Alpha virt. eigenvalues --    0.04293   0.08692   0.10133   0.11971   0.12088
 Alpha virt. eigenvalues --    0.14721   0.14860   0.15313   0.15685   0.16168

 Mulliken charges:
               1
     1  C    0.400018
     2  C    0.405271
     3  O   -0.509844
     4  O   -0.509417
     5  C   -0.399682
     6  H    0.143150
     7  H    0.147028
     8  H    0.130406
     9  C   -0.403786
    10  H    0.137753
    11  H    0.157144
    12  H    0.125612
    13  C    0.060144
    14  C   -0.107182
    15  C   -0.116495
    16  C   -0.099695
    17  H    0.109858
    18  C   -0.101208
    19  H    0.109429
    20  C   -0.086320
    21  H    0.107949
    22  H    0.108500
    23  H    0.110238
    24  C    0.037688
    25  C   -0.115352
    26  C   -0.118708
    27  C   -0.099895
    28  H    0.111782
    29  C   -0.088534
    30  H    0.109589
    31  C   -0.080582
    32  H    0.108247
    33  H    0.107471
    34  H    0.109424
 Sum of Mulliken charges =  -0.00000

 Dipole moment (field-independent basis, Debye):
    X=              5.6807    Y=              3.5210    Z=             -0.4253  Tot=              6.6969
 Quadrupole moment (field-independent basis, Debye-Ang):
   XX=           -109.6885   YY=           -108.1917   ZZ=            -91.5532
   XY=              1.1767   XZ=              3.7099   YZ=              0.6194

  Exact polarizability: 239.399  81.068 172.019 -27.592  32.745 228.427
 Approx polarizability: 295.326 105.113 214.500 -36.263  45.219 294.970

                      1                      2                      3
                      A                      A                      A
 Frequencies --     13.9692                28.7435                44.5631
 Red. masses --      4.8936                 5.8894                 4.9157
 Frc consts  --      0.0006                 0.0029                 0.0058
 IR Inten    --      0.8828                 2.6053                 0.2786

                      4                      5                      6
                      A                      A                      A
 Frequencies --     53.7675                63.6690                79.5090
 Red. masses --      5.8346                 3.7555                 5.3936
 Frc consts  --      0.0099                 0.0090                 0.0201
 IR Inten    --      1.8089                 0.0404                 0.7271

                      7                      8                      9
                      A                      A                      A
 Frequencies --     92.2732               117.8047               156.8225
 Red. masses --      3.1658                 4.2087                 2.6703
 Frc consts  --      0.0159                 0.0344                 0.0387
 IR Inten    --      3.4663                12.4518                 0.6382

                     10                     11                     12
                      A                      A                      A
 Frequencies --    168.6776               187.3455               213.9066
 Red. masses --      3.4942                 1.2825                 1.1449
 Frc consts  --      0.0586                 0.0265                 0.0309
 IR Inten    --      0.3783                 2.4139                 4.4388

                     13                     14                     15
                      A                      A                      A
 Frequencies --    233.5300               234.2261               375.7319
 Red. masses --      3.8651                 3.9436                 4.6272
 Frc consts  --      0.1242                 0.1275                 0.3849
 IR Inten    --      4.0427                11.4097                 1.6092

                     16                     17                     18
                      A                      A                      A
 Frequencies --    376.2983               411.0314               414.6153
 Red. masses --      4.6161                 2.9302                 2.9126
 Frc consts  --      0.3851                 0.2917                 0.2950
 IR Inten    --      0.7498                 0.0101                 0.0541

                     19                     20                     21
                      A                      A                      A
 Frequencies --    429.2592               432.2931               471.3435
 Red. masses --      3.3681                 3.4005                 4.5242
 Frc consts  --      0.3657                 0.3744                 0.5922
 IR Inten    --      0.1377                 0.3661                 0.4456

                     22                     23                     24
                      A                      A                      A
 Frequencies --    472.8806               597.3143               599.1645
 Red. masses --      4.5018                 4.2422                 4.4896
 Frc consts  --      0.5931                 0.8918                 0.9496
 IR Inten    --      2.5695                38.6187                39.4070

                     25                     26                     27
                      A                      A                      A
 Frequencies --    603.7342               607.6138               629.6615
 Red. masses --      2.4682                 2.4727                 6.4200
 Frc consts  --      0.5300                 0.5379                 1.4997
 IR Inten    --     21.2124                 7.4092                 1.6483

                     28                     29                     30
                      A                      A                      A
 Frequencies --    629.8482               701.1276               702.9413
 Red. masses --      6.4287                 1.8749                 1.8730
 Frc consts  --      1.5026                 0.5430                 0.5453
 IR Inten    --      1.1397                63.9632                20.6375

                     31                     32                     33
                      A                      A                      A
 Frequencies --    745.0998               746.5134               774.1712
 Red. masses --      5.0412                 5.0349                 1.7258
 Frc consts  --      1.6490                 1.6532                 0.6094
 IR Inten    --      1.4882                 1.2021                46.4451

                     34                     35                     36
                      A                      A                      A
 Frequencies --    777.4548               861.9665               863.5604
 Red. masses --      1.6838                 1.2536                 1.2553
 Frc consts  --      0.5997                 0.5488                 0.5516
 IR Inten    --     31.0384                 0.0555                 1.0557

                     37                     38                     39
                      A                      A                      A
 Frequencies --    946.8844               948.7335               968.7737
 Red. masses --      1.3499                 1.3480                 2.1983
 Frc consts  --      0.7131                 0.7149                 1.2156
 IR Inten    --      6.4875                 3.2923                55.6673

                     40                     41                     42
                      A                      A                      A
 Frequencies --    970.3206               988.2856               989.5809
 Red. masses --      2.2171                 1.3599                 1.3649
 Frc consts  --      1.2299                 0.7826                 0.7875
 IR Inten    --     30.0142                 0.2680                 1.3743

                     43                     44                     45
                      A                      A                      A
 Frequencies --   1010.2103              1012.1774              1015.2600
 Red. masses --      1.2913                 1.2925                 6.0081
 Frc consts  --      0.7764                 0.7802                 3.6488
 IR Inten    --      0.6978                 0.4158                 0.4762

                     46                     47                     48
                      A                      A                      A
 Frequencies --   1015.8217              1047.6132              1050.5394
 Red. masses --      5.8632                 1.8893                 2.5027
 Frc consts  --      3.5647                 1.2217                 1.6274
 IR Inten    --      2.3851                10.6912                 3.8391

                     49                     50                     51
                      A                      A                      A
 Frequencies --   1051.2214              1052.1557              1101.0237
 Red. masses --      2.5188                 1.8808                 2.1183
 Frc consts  --      1.6400                 1.2268                 1.5130
 IR Inten    --      6.1292                 8.2716                 1.4684

                     52                     53                     54
                      A                      A                      A
 Frequencies --   1101.7068              1119.1823              1119.8030
 Red. masses --      2.1214                 1.5435                 1.5508
 Frc consts  --      1.5171                 1.1391                 1.1457
 IR Inten    --      1.3236                 9.4712                10.4771

                     55                     56                     57
                      A                      A                      A
 Frequencies --   1193.0529              1193.1039              1212.5836
 Red. masses --      1.1043                 1.1042                 1.1470
 Frc consts  --      0.9261                 0.9261                 0.9937
 IR Inten    --      4.0829                 0.3938                11.2716

                     58                     59                     60
                      A                      A                      A
 Frequencies --   1213.5226              1285.5822              1289.5071
 Red. masses --      1.1468                 3.3383                 3.3910
 Frc consts  --      0.9950                 3.2507                 3.3222
 IR Inten    --     35.9846               259.7837               276.4197

                     61                     62                     63
                      A                      A                      A
 Frequencies --   1345.5651              1347.0399              1367.1026
 Red. masses --      1.7205                 1.7582                 3.2674
 Frc consts  --      1.8354                 1.8797                 3.5980
 IR Inten    --      5.1946                 7.1052                 8.8106

                     64                     65                     66
                      A                      A                      A
 Frequencies --   1367.2724              1393.9982              1395.1561
 Red. masses --      3.1560                 1.3481                 1.3419
 Frc consts  --      3.4761                 1.5435                 1.5389
 IR Inten    --      4.2414                85.8775               111.5281

                     67                     68                     69
                      A                      A                      A
 Frequencies --   1475.0635              1478.0607              1480.3263
 Red. masses --      1.0551                 1.0672                 1.0563
 Frc consts  --      1.3526                 1.3737                 1.3638
 IR Inten    --     10.6518                10.6883                14.1105

                     70                     71                     72
                      A                      A                      A
 Frequencies --   1485.2216              1487.9624              1488.1548
 Red. masses --      1.0738                 2.1590                 2.2436
 Frc consts  --      1.3955                 2.8164                 2.9274
 IR Inten    --     12.4506                37.4552                25.0148

                     73                     74                     75
                      A                      A                      A
 Frequencies --   1533.8181              1534.9332              1632.1983
 Red. masses --      2.1633                 2.1639                 5.3970
 Frc consts  --      2.9985                 3.0037                 8.4713
 IR Inten    --      1.1169                 2.7123                29.5148

                     76                     77                     78
                      A                      A                      A
 Frequencies --   1632.7232              1652.0817              1653.1048
 Red. masses --      5.3922                 5.4452                 5.4489
 Frc consts  --      8.4693                 8.7564                 8.7733
 IR Inten    --      7.8142                17.9449                82.4221

                     79                     80                     81
                      A                      A                      A
 Frequencies --   1742.3583              1749.0970              3054.6027
 Red. masses --     10.4201                10.5565                 1.0362
 Frc consts  --     18.6379                19.0282                 5.6967
 IR Inten    --    339.7680               297.2379                 4.0119

                     82                     83                     84
                      A                      A                      A
 Frequencies --   3056.3705              3125.9455              3127.3029
 Red. masses --      1.0374                 1.0993                 1.1004
 Frc consts  --      5.7098                 6.3290                 6.3409
 IR Inten    --      2.2531                 6.6099                 2.9875

                     85                     86                     87
                      A                      A                      A
 Frequencies --   3164.6597              3171.4917              3184.5061
 Red. masses --      1.1038                 1.1034                 1.0861
 Frc consts  --      6.5135                 6.5389                 6.4893
 IR Inten    --     25.0466                18.6569                 0.4546

                     88                     89                     90
                      A                      A                      A
 Frequencies --   3186.6251              3194.9298              3197.6906
 Red. masses --      1.0862                 1.0896                 1.0892
 Frc consts  --      6.4989                 6.5529                 6.5622
 IR Inten    --      2.2394                15.7173                13.0572

                     91                     92                     93
                      A                      A                      A
 Frequencies --   3205.0918              3206.9043              3214.2952
 Red. masses --      1.0938                 1.0923                 1.0940
 Frc consts  --      6.6201                 6.6185                 6.6596
 IR Inten    --     29.3170                24.8725                21.8642

                     94                     95                     96
                      A                      A                      A
 Frequencies --   3216.5574              3220.2211              3220.7477
 Red. masses --      1.0932                 1.0950                 1.0959
 Frc consts  --      6.6640                 6.6900                 6.6980
 IR Inten    --     22.7531                 7.3892                12.5074

 - Thermochemistry -
 -------------------
 Temperature   298.150 Kelvin.  Pressure   1.00000 Atm.
 Atom     1 has atomic number  6 and mass  12.00000

 Molecular mass:   240.11503 amu.
 Principal axes and moments of inertia in atomic units:
                           1         2         3
     Eigenvalues --  3050.875204670.631685651.41623
           X            0.99949   0.03139   0.00597
           Y           -0.03145   0.99946   0.00960
           Z           -0.00567  -0.00978   0.99994
 This molecule is an asymmetric top.
 Rotational symmetry number  1.
 Warning -- assumption of classical behavior for rotation
           may cause significant error
 Rotational temperatures (Kelvin)      0.02839     0.01854     0.01533
 Rotational constants (GHZ):           0.59155     0.38640     0.31934
 Zero-point vibrational energy     728515.4 (Joules/Mol)
                                  174.11935 (Kcal/Mol)
 Warning -- explicit consideration of  26 degrees of freedom as
           vibrations may cause significant error
 Vibrational temperatures:     20.10    41.36    64.12    77.36    91.61
          (Kelvin)            114.40   132.76   169.49   225.63   242.69
                              269.55   307.76   336.00   337.00   540.59
                              541.41   591.38   596.54   617.61   621.97
                              678.16   680.37   859.40   862.06   868.64
                              874.22   905.94   906.21  1008.77  1011.38
                             1072.03  1074.07  1113.86  1118.58  1240.18
                             1242.47  1362.36  1365.02  1393.85  1396.07
                             1421.92  1423.79  1453.47  1456.30  1460.73
                             1461.54  1507.28  1511.49  1512.47  1513.82
                             1584.13  1585.11  1610.25  1611.15  1716.54
                             1716.61  1744.64  1745.99  1849.67  1855.31
                             1935.97  1938.09  1966.96  1967.20  2005.65
                             2007.32  2122.29  2126.60  2129.86  2136.90
                             2140.85  2141.12  2206.82  2208.43  2348.37
                             2349.12  2376.98  2378.45  2506.86  2516.56
                             4394.89  4397.44  4497.54  4499.49  4553.24
                             4563.07  4581.79  4584.84  4596.79  4600.76
                             4611.41  4614.02  4624.65  4627.91  4633.18
                             4633.94

 Zero-point correction=                           0.277477 (Hartree/Particle)
 Thermal correction to Energy=                    0.294939
 Thermal correction to Enthalpy=                  0.295884
 Thermal correction to Gibbs Free Energy=         0.229521
 Sum of electronic and zero-point Energies=           -769.587816
 Sum of electronic and thermal Energies=              -769.570354
 Sum of electronic and thermal Enthalpies=            -769.569409
 Sum of electronic and thermal Free Energies=         -769.635772

                     E (Thermal)             CV                S
                      KCal/Mol        Cal/Mol-Kelvin    Cal/Mol-Kelvin
 Total                  185.077             64.774            139.671
 Electronic               0.000              0.000              0.000
 Translational            0.889              2.981             42.329
 Rotational               0.889              2.981             32.754
 Vibrational            183.300             58.812             64.588
 Vibration     1          0.593              1.986              7.347
 Vibration     2          0.593              1.984              5.914
 Vibration     3          0.595              1.980              5.045
 Vibration     4          0.596              1.976              4.674
 Vibration     5          0.597              1.972              4.340
 Vibration     6          0.600              1.963              3.903
 Vibration     7          0.602              1.955              3.611
 Vibration     8          0.608              1.935              3.136
 Vibration     9          0.620              1.895              2.588
 Vibration    10          0.625              1.881              2.450
 Vibration    11          0.632              1.857              2.254
 Vibration    12          0.644              1.820              2.010
 Vibration    13          0.654              1.790              1.852
 Vibration    14          0.654              1.788              1.846
 Vibration    15          0.747              1.522              1.056
 Vibration    16          0.747              1.521              1.054
 Vibration    17          0.775              1.446              0.923
 Vibration    18          0.778              1.438              0.910
 Vibration    19          0.791              1.407              0.861
 Vibration    20          0.793              1.400              0.851
 Vibration    21          0.828              1.314              0.734
 Vibration    22          0.830              1.310              0.730
 Vibration    23          0.955              1.037              0.454
 Vibration    24          0.957              1.034              0.451
 Vibration    25          0.962              1.024              0.443
 Vibration    26          0.966              1.016              0.437

                           ! Non-Optimized Parameters !
 Normal termination of Gaussian 16 at Fri May 10 12:20:21 2019.
