 Gaussian 16, Revision A.03,
 Gaussian 16:  ES64L-G16RevA.03 25-Dec-2016

 ----------------------------------------------------------------------
 #p freq ub3lyp/6-31g(d,p) scrf=(iefpcm,solvent=acetonitrile) guess=(mi
 x,always) empiricaldispersion=gd3
 ----------------------------------------------------------------------

 -------------------
 Title Card Required
 -------------------
 Symbolic Z-matrix:
 Charge =  0 Multiplicity = 1

                         Standard orientation:
 ---------------------------------------------------------------------
 Center     Atomic      Atomic             Coordinates (Angstroms)
 Number     Number       Type             X           Y           Z
 ---------------------------------------------------------------------
      1          6           0        0.766480   -1.595915   -0.675280
      2          1           0        4.098170   -0.655976    1.181354
      3          6           0        1.335606    1.533462    0.760153
      4          8           0        2.237611    1.913355    0.007408
      5          8           0        1.615597   -2.089354    0.264031
      6          7           0        4.367223    0.012739   -0.580148
      7          1           0        4.219893   -0.193244   -1.561360
      8          7           0        4.098947   -1.030977    0.227912
      9          1           0        2.562275   -1.824062    0.086299
     10          1           0        4.023896    0.933740   -0.299431
     11          6           0        1.368936   -0.984241   -1.902344
     12          1           0        0.660954   -0.942951   -2.730936
     13          1           0        1.717585    0.040294   -1.712010
     14          1           0        2.231334   -1.574110   -2.234670
     15          6           0        1.668400    0.787463    2.032580
     16          1           0        1.076318    1.135376    2.882036
     17          1           0        1.461336   -0.279334    1.885780
     18          1           0        2.728144    0.919232    2.255094
     19          6           0       -0.620681   -1.671086   -0.382102
     20          6           0       -1.070394   -2.204599    0.864158
     21          6           0       -1.622170   -1.217071   -1.289935
     22          6           0       -2.422472   -2.280125    1.166475
     23          1           0       -0.333620   -2.552403    1.578897
     24          6           0       -2.969302   -1.303960   -0.973281
     25          1           0       -1.334856   -0.777352   -2.238437
     26          6           0       -3.390148   -1.836404    0.253927
     27          1           0       -2.731116   -2.689218    2.125259
     28          1           0       -3.705546   -0.941630   -1.685709
     29          1           0       -4.446744   -1.897399    0.495652
     30          6           0       -0.089300    1.785984    0.410997
     31          6           0       -0.375739    2.518137   -0.754481
     32          6           0       -1.150817    1.314386    1.200881
     33          6           0       -1.692700    2.784608   -1.114460
     34          1           0        0.450671    2.872277   -1.360875
     35          6           0       -2.468948    1.579831    0.837001
     36          1           0       -0.957405    0.718707    2.084683
     37          6           0       -2.742224    2.318498   -0.315567
     38          1           0       -1.904686    3.353822   -2.014463
     39          1           0       -3.281764    1.193296    1.442158
     40          1           0       -3.770851    2.522782   -0.597514
 ---------------------------------------------------------------------

 SCF Done:  E(UB3LYP) =  -881.694213015     A.U. after   18 cycles

 The electronic state is 1-A.
 Alpha  occ. eigenvalues --  -19.16062 -19.14734 -14.38814 -14.36005 -10.28465
 Alpha  occ. eigenvalues --  -10.23236 -10.20048 -10.19869 -10.19852 -10.19656
 Alpha  occ. eigenvalues --  -10.19471 -10.19341 -10.18892 -10.18627 -10.18482
 Alpha  occ. eigenvalues --  -10.18197 -10.18129 -10.17775 -10.17550 -10.17513
 Alpha  occ. eigenvalues --   -1.04248  -1.03661  -0.99306  -0.85974  -0.84032
 Alpha  occ. eigenvalues --   -0.77383  -0.76556  -0.75038  -0.74414  -0.73346
 Alpha  occ. eigenvalues --   -0.73006  -0.71773  -0.63388  -0.63032  -0.60622
 Alpha  occ. eigenvalues --   -0.59073  -0.56445  -0.55816  -0.54606  -0.51215
 Alpha  occ. eigenvalues --   -0.50968  -0.48943  -0.47834  -0.46549  -0.46208
 Alpha  occ. eigenvalues --   -0.45249  -0.45116  -0.44473  -0.43787  -0.42481
 Alpha  occ. eigenvalues --   -0.42253  -0.42032  -0.41597  -0.40969  -0.40260
 Alpha  occ. eigenvalues --   -0.39056  -0.37992  -0.37754  -0.36886  -0.35767
 Alpha  occ. eigenvalues --   -0.35281  -0.34463  -0.34431  -0.33980  -0.32978
 Alpha  occ. eigenvalues --   -0.32039  -0.30770  -0.26265  -0.26157  -0.25516
 Alpha  occ. eigenvalues --   -0.24226  -0.23684  -0.20083
 Alpha virt. eigenvalues --   -0.06563  -0.04734  -0.00511   0.01229   0.03859
 Alpha virt. eigenvalues --    0.05964   0.06952   0.09327   0.09930   0.10622
 Alpha virt. eigenvalues --    0.12843   0.13068   0.14493   0.14900   0.15784

  Beta  occ. eigenvalues --  -19.16302 -19.14741 -14.38053 -14.34666 -10.28474
  Beta  occ. eigenvalues --  -10.24131 -10.20045 -10.19877 -10.19862 -10.19660
  Beta  occ. eigenvalues --  -10.19468 -10.19338 -10.18713 -10.18625 -10.18417
  Beta  occ. eigenvalues --  -10.18072 -10.18061 -10.17980 -10.17834 -10.17824
  Beta  occ. eigenvalues --   -1.04343  -1.04210  -0.97209  -0.85984  -0.84358
  Beta  occ. eigenvalues --   -0.77428  -0.77244  -0.75044  -0.73639  -0.73064
  Beta  occ. eigenvalues --   -0.72137  -0.71630  -0.64240  -0.63055  -0.60627
  Beta  occ. eigenvalues --   -0.59238  -0.56631  -0.55565  -0.54093  -0.51248
  Beta  occ. eigenvalues --   -0.51045  -0.49247  -0.47134  -0.46538  -0.46208
  Beta  occ. eigenvalues --   -0.45661  -0.45482  -0.44468  -0.43729  -0.42724
  Beta  occ. eigenvalues --   -0.42486  -0.42126  -0.42050  -0.41053  -0.39087
  Beta  occ. eigenvalues --   -0.38443  -0.38218  -0.37650  -0.36284  -0.35771
  Beta  occ. eigenvalues --   -0.34788  -0.34518  -0.34456  -0.34222  -0.33144
  Beta  occ. eigenvalues --   -0.31898  -0.28984  -0.26636  -0.26153  -0.25559
  Beta  occ. eigenvalues --   -0.25272  -0.24505  -0.14038
  Beta virt. eigenvalues --   -0.06485  -0.05598  -0.00539   0.00596   0.03375
  Beta virt. eigenvalues --    0.03975   0.07194   0.09505   0.09979   0.10677
  Beta virt. eigenvalues --    0.12878   0.13063   0.14460   0.15007   0.15786

 Mulliken charges and spin densities:
               1          2
     1  C    0.245511  -0.580647
     2  H    0.270626  -0.022265
     3  C    0.407129  -0.006881
     4  O   -0.519676  -0.004147
     5  O   -0.573229  -0.072476
     6  N   -0.386129   0.329895
     7  H    0.300523  -0.008579
     8  N   -0.451460   0.666024
     9  H    0.360737   0.004200
    10  H    0.306195   0.001971
    11  C   -0.401877   0.052636
    12  H    0.128217  -0.005865
    13  H    0.137435  -0.036335
    14  H    0.123495  -0.017642
    15  C   -0.418598   0.000795
    16  H    0.139921   0.000944
    17  H    0.165100  -0.002606
    18  H    0.127651   0.000066
    19  C    0.100414   0.147309
    20  C   -0.142659  -0.222503
    21  C   -0.141857  -0.218621
    22  C   -0.102002   0.117209
    23  H    0.092047   0.009940
    24  C   -0.099515   0.115150
    25  H    0.084331   0.009693
    26  C   -0.115289  -0.251030
    27  H    0.088225  -0.004209
    28  H    0.087544  -0.004051
    29  H    0.085685   0.011812
    30  C    0.054647   0.002653
    31  C   -0.110545  -0.004460
    32  C   -0.108875  -0.007663
    33  C   -0.102294   0.003189
    34  H    0.109125   0.000173
    35  C   -0.084543   0.003589
    36  H    0.108185   0.000086
    37  C   -0.084573  -0.007220
    38  H    0.106937  -0.000118
    39  H    0.105078  -0.000361
    40  H    0.108361   0.000344
 Sum of Mulliken charges =  -0.00000  -0.00000

 Dipole moment (field-independent basis, Debye):
    X=             -0.8068    Y=              3.2795    Z=             -0.0554  Tot=              3.3778
 Quadrupole moment (field-independent basis, Debye-Ang):
   XX=           -112.6048   YY=           -130.5055   ZZ=           -104.4688
   XY=             -0.4762   XZ=             -1.2558   YZ=             -1.9611

  Exact polarizability: 364.960   7.991 186.332 -10.893 -56.480 235.121
 Approx polarizability: 431.939   7.501 214.429 -17.338 -77.050 290.667

                      1                      2                      3
                      A                      A                      A
 Frequencies --     19.3499                24.4618                39.8178
 Red. masses --      6.0523                 4.8200                 4.8265
 Frc consts  --      0.0013                 0.0017                 0.0045
 IR Inten    --      1.9008                 0.6836                 0.1244

                      4                      5                      6
                      A                      A                      A
 Frequencies --     54.1765                65.6812                72.6658
 Red. masses --      4.0114                 5.7094                 4.3593
 Frc consts  --      0.0069                 0.0145                 0.0136
 IR Inten    --      1.6083                 2.2049                 0.5319

                      7                      8                      9
                      A                      A                      A
 Frequencies --     89.3144               103.6190               121.2415
 Red. masses --      4.3191                 4.1556                 4.1435
 Frc consts  --      0.0203                 0.0263                 0.0359
 IR Inten    --      1.3854                10.2646                 7.8011

                     10                     11                     12
                      A                      A                      A
 Frequencies --    127.6908               137.5881               156.0362
 Red. masses --      3.4271                 3.5758                 3.1361
 Frc consts  --      0.0329                 0.0399                 0.0450
 IR Inten    --      2.3904                 3.4552                27.3428

                     13                     14                     15
                      A                      A                      A
 Frequencies --    165.0971               174.9433               182.7520
 Red. masses --      4.3556                 3.4992                 1.3202
 Frc consts  --      0.0699                 0.0631                 0.0260
 IR Inten    --      6.5800                13.5519                45.1969

                     16                     17                     18
                      A                      A                      A
 Frequencies --    189.8510               205.7760               241.6541
 Red. masses --      1.3721                 3.6759                 1.3098
 Frc consts  --      0.0291                 0.0917                 0.0451
 IR Inten    --      7.8111                79.2205                78.9367

                     19                     20                     21
                      A                      A                      A
 Frequencies --    258.5647               268.0043               356.9523
 Red. masses --      2.3327                 2.8240                 3.9292
 Frc consts  --      0.0919                 0.1195                 0.2950
 IR Inten    --      2.4436                 2.8915                 2.2432

                     22                     23                     24
                      A                      A                      A
 Frequencies --    387.1170               393.2623               411.2423
 Red. masses --      4.3342                 4.2478                 2.8934
 Frc consts  --      0.3827                 0.3871                 0.2883
 IR Inten    --      2.6619                 5.1968                 0.0561

                     25                     26                     27
                      A                      A                      A
 Frequencies --    415.5757               433.7707               479.8763
 Red. masses --      3.0567                 3.3768                 4.5910
 Frc consts  --      0.3110                 0.3744                 0.6229
 IR Inten    --      0.2325                 0.5766                 4.0301

                     28                     29                     30
                      A                      A                      A
 Frequencies --    481.8834               512.5015               554.7840
 Red. masses --      4.5380                 3.2473                 4.0317
 Frc consts  --      0.6209                 0.5025                 0.7311
 IR Inten    --      1.1598                 6.4566                 3.8267

                     31                     32                     33
                      A                      A                      A
 Frequencies --    596.3080               613.8497               627.3562
 Red. masses --      3.9160                 2.6826                 6.4172
 Frc consts  --      0.8204                 0.5956                 1.4881
 IR Inten    --     38.9919                19.7156                 0.0997

                     34                     35                     36
                      A                      A                      A
 Frequencies --    629.4918               685.6816               697.2607
 Red. masses --      6.3660                 1.7929                 1.8349
 Frc consts  --      1.4863                 0.4966                 0.5256
 IR Inten    --      2.0129                41.3773                39.8443

                     37                     38                     39
                      A                      A                      A
 Frequencies --    730.9929               739.2339               747.3730
 Red. masses --      1.1509                 5.1211                 2.8673
 Frc consts  --      0.3623                 1.6488                 0.9436
 IR Inten    --     94.9602                13.8321                74.1623

                     40                     41                     42
                      A                      A                      A
 Frequencies --    748.1254               753.6201               774.1354
 Red. masses --      2.1408                 1.2815                 1.7548
 Frc consts  --      0.7060                 0.4288                 0.6196
 IR Inten    --     64.9488               573.7275                44.8046

                     43                     44                     45
                      A                      A                      A
 Frequencies --    821.1249               855.6758               871.0590
 Red. masses --      1.2775                 1.2572                 1.1233
 Frc consts  --      0.5075                 0.5424                 0.5022
 IR Inten    --      0.7745                 1.1721               312.7531

                     46                     47                     48
                      A                      A                      A
 Frequencies --    871.7580               944.4715               957.7351
 Red. masses --      1.3604                 1.3557                 1.3309
 Frc consts  --      0.6091                 0.7125                 0.7193
 IR Inten    --    124.0845                 3.4615                 0.2143

                     49                     50                     51
                      A                      A                      A
 Frequencies --    970.5446               976.4988               979.0935
 Red. masses --      2.4359                 2.1887                 1.2405
 Frc consts  --      1.3519                 1.2296                 0.7006
 IR Inten    --     25.3305                49.0373                 0.5457

                     52                     53                     54
                      A                      A                      A
 Frequencies --    983.8641               991.3025              1008.8621
 Red. masses --      1.3761                 4.3004                 1.3085
 Frc consts  --      0.7848                 2.4898                 0.7847
 IR Inten    --      1.7696                 5.2901                 0.5840

                     55                     56                     57
                      A                      A                      A
 Frequencies --   1015.2675              1037.2933              1041.5294
 Red. masses --      5.4873                 1.4447                 2.2904
 Frc consts  --      3.3325                 0.9158                 1.4639
 IR Inten    --      0.5330                14.7656                12.2030

                     58                     59                     60
                      A                      A                      A
 Frequencies --   1051.1821              1056.0468              1083.9689
 Red. masses --      2.5083                 1.7973                 2.0111
 Frc consts  --      1.6330                 1.1810                 1.3922
 IR Inten    --      4.1132                 8.5004                10.8207

                     61                     62                     63
                      A                      A                      A
 Frequencies --   1100.1567              1112.7612              1120.2997
 Red. masses --      2.1383                 1.6611                 1.5444
 Frc consts  --      1.5249                 1.2119                 1.1420
 IR Inten    --      5.1910                16.2243                10.1322

                     64                     65                     66
                      A                      A                      A
 Frequencies --   1183.0388              1193.4468              1195.8952
 Red. masses --      1.1206                 1.1034                 1.0987
 Frc consts  --      0.9240                 0.9260                 0.9258
 IR Inten    --      2.7940                 2.9878                10.4145

                     67                     68                     69
                      A                      A                      A
 Frequencies --   1210.1648              1214.0374              1285.5170
 Red. masses --      1.1821                 1.1444                 3.4132
 Frc consts  --      1.0200                 0.9938                 3.3232
 IR Inten    --      5.2959                18.0269                11.6733

                     70                     71                     72
                      A                      A                      A
 Frequencies --   1296.3451              1300.4912              1324.3309
 Red. masses --      3.9697                 4.8295                 1.9916
 Frc consts  --      3.9305                 4.8125                 2.0580
 IR Inten    --    221.1547                74.3660                40.7148

                     73                     74                     75
                      A                      A                      A
 Frequencies --   1346.7564              1362.4350              1368.0975
 Red. masses --      1.7328                 2.7401                 3.2703
 Frc consts  --      1.8518                 2.9967                 3.6064
 IR Inten    --      7.8584                47.4245                 8.9904

                     76                     77                     78
                      A                      A                      A
 Frequencies --   1371.5429              1401.5085              1424.1732
 Red. masses --      1.9643                 1.3229                 1.2823
 Frc consts  --      2.1770                 1.5310                 1.5324
 IR Inten    --    356.8919                52.3846                20.1882

                     79                     80                     81
                      A                      A                      A
 Frequencies --   1473.4932              1478.4769              1487.2656
 Red. masses --      1.3019                 1.2098                 1.9416
 Frc consts  --      1.6655                 1.5581                 2.5304
 IR Inten    --      8.5074                23.8805                50.5696

                     82                     83                     84
                      A                      A                      A
 Frequencies --   1488.4946              1494.2105              1495.8535
 Red. masses --      1.6259                 1.1503                 1.1091
 Frc consts  --      2.1225                 1.5132                 1.4622
 IR Inten    --     13.3969                12.7219                14.8249

                     85                     86                     87
                      A                      A                      A
 Frequencies --   1506.1922              1509.7459              1534.3142
 Red. masses --      1.4239                 1.2706                 2.1392
 Frc consts  --      1.9032                 1.7064                 2.9671
 IR Inten    --     21.6273                45.6099                 7.5890

                     88                     89                     90
                      A                      A                      A
 Frequencies --   1557.9981              1584.3693              1621.1843
 Red. masses --      2.1305                 4.1232                 4.9351
 Frc consts  --      3.0470                 6.0981                 7.6420
 IR Inten    --     19.7424                 3.9699                52.5995

                     91                     92                     93
                      A                      A                      A
 Frequencies --   1629.7169              1650.3844              1685.7459
 Red. masses --      5.3451                 5.4578                 1.1194
 Frc consts  --      8.3643                 8.7587                 1.8742
 IR Inten    --     32.2955                78.2515                36.9762

                     94                     95                     96
                      A                      A                      A
 Frequencies --   1712.0173              3015.6285              3048.0049
 Red. masses --      8.1510                 1.0438                 1.0392
 Frc consts  --     14.0760                 5.5927                 5.6881
 IR Inten    --    330.7310                53.6631                16.7688

                     97                     98                     99
                      A                      A                      A
 Frequencies --   3071.6081              3121.6283              3129.0910
 Red. masses --      1.0976                 1.0778                 1.0942
 Frc consts  --      6.1015                 6.1880                 6.3120
 IR Inten    --     36.9363              1772.4119               285.6296

                    100                    101                    102
                      A                      A                      A
 Frequencies --   3143.9893              3158.9675              3170.2860
 Red. masses --      1.0957                 1.1043                 1.0857
 Frc consts  --      6.3812                 6.4927                 6.4294
 IR Inten    --     10.8280                30.8664                 7.8883

                    103                    104                    105
                      A                      A                      A
 Frequencies --   3176.6164              3185.2268              3197.9425
 Red. masses --      1.0889                 1.0865                 1.0929
 Frc consts  --      6.4738                 6.4945                 6.5854
 IR Inten    --     28.6885                 3.5747                49.5068

                    106                    107                    108
                      A                      A                      A
 Frequencies --   3198.6187              3208.6469              3209.7840
 Red. masses --      1.0906                 1.0928                 1.0925
 Frc consts  --      6.5743                 6.6287                 6.6316
 IR Inten    --     19.8587                31.2003                21.6213

                    109                    110                    111
                      A                      A                      A
 Frequencies --   3216.7889              3217.2613              3228.7405
 Red. masses --      1.0925                 1.0940                 1.0940
 Frc consts  --      6.6604                 6.6716                 6.7195
 IR Inten    --     10.4629                16.9192                 9.2064

                    112                    113                    114
                      A                      A                      A
 Frequencies --   3427.4805              3448.6480              3615.0722
 Red. masses --      1.0548                 1.0740                 1.0939
 Frc consts  --      7.3007                 7.5258                 8.4227
 IR Inten    --    176.5732                 2.0614                53.6382

 - Thermochemistry -
 -------------------
 Temperature   298.150 Kelvin.  Pressure   1.00000 Atm.
 Atom     1 has atomic number  6 and mass  12.00000

 Molecular mass:   272.15248 amu.
 Principal axes and moments of inertia in atomic units:
                           1         2         3
     Eigenvalues --  4000.478266158.483228114.36417
           X            0.99999  -0.00528  -0.00083
           Y            0.00527   0.99992  -0.01155
           Z            0.00089   0.01155   0.99993
 This molecule is an asymmetric top.
 Rotational symmetry number  1.
 Warning -- assumption of classical behavior for rotation
           may cause significant error
 Rotational temperatures (Kelvin)      0.02165     0.01406     0.01067
 Rotational constants (GHZ):           0.45113     0.29305     0.22241
 Zero-point vibrational energy     866673.2 (Joules/Mol)
                                  207.13987 (Kcal/Mol)
 Warning -- explicit consideration of  32 degrees of freedom as
           vibrations may cause significant error
 Vibrational temperatures:     27.84    35.20    57.29    77.95    94.50
          (Kelvin)            104.55   128.50   149.08   174.44   183.72
                              197.96   224.50   237.54   251.70   262.94
                              273.15   296.07   347.69   372.02   385.60
                              513.57   556.98   565.82   591.69   597.92
                              624.10   690.43   693.32   737.38   798.21
                              857.95   883.19   902.63   905.70   986.54
                             1003.20  1051.74  1063.59  1075.30  1076.39
                             1084.29  1113.81  1181.42  1231.13  1253.26
                             1254.27  1358.88  1377.97  1396.40  1404.96
                             1408.70  1415.56  1426.26  1451.53  1460.74
                             1492.43  1498.53  1512.42  1519.42  1559.59
                             1582.88  1601.02  1611.86  1702.13  1717.10
                             1720.63  1741.16  1746.73  1849.57  1865.15
                             1871.12  1905.42  1937.68  1960.24  1968.39
                             1973.34  2016.46  2049.07  2120.03  2127.20
                             2139.84  2141.61  2149.84  2152.20  2167.07
                             2172.19  2207.54  2241.61  2279.55  2332.52
                             2344.80  2374.54  2425.41  2463.21  4338.82
                             4385.40  4419.36  4491.33  4502.06  4523.50
                             4545.05  4561.33  4570.44  4582.83  4601.13
                             4602.10  4616.53  4618.16  4628.24  4628.92
                             4645.44  4931.38  4961.84  5201.28

 Zero-point correction=                           0.330098 (Hartree/Particle)
 Thermal correction to Energy=                    0.351748
 Thermal correction to Enthalpy=                  0.352692
 Thermal correction to Gibbs Free Energy=         0.277789
 Sum of electronic and zero-point Energies=           -881.364115
 Sum of electronic and thermal Energies=              -881.342465
 Sum of electronic and thermal Enthalpies=            -881.341521
 Sum of electronic and thermal Free Energies=         -881.416424

                     E (Thermal)             CV                S
                      KCal/Mol        Cal/Mol-Kelvin    Cal/Mol-Kelvin
 Total                  220.725             79.425            157.647
 Electronic               0.000              0.000              0.000
 Translational            0.889              2.981             42.702
 Rotational               0.889              2.981             33.658
 Vibrational            218.948             73.463             81.287
 Vibration     1          0.593              1.986              6.700
 Vibration     2          0.593              1.985              6.234
 Vibration     3          0.594              1.981              5.268
 Vibration     4          0.596              1.976              4.659
 Vibration     5          0.597              1.971              4.279
 Vibration     6          0.599              1.967              4.080
 Vibration     7          0.602              1.957              3.675
 Vibration     8          0.605              1.946              3.385
 Vibration     9          0.609              1.931              3.080
 Vibration    10          0.611              1.926              2.981
 Vibration    11          0.614              1.916              2.837
 Vibration    12          0.620              1.896              2.597
 Vibration    13          0.623              1.885              2.491
 Vibration    14          0.627              1.873              2.382
 Vibration    15          0.630              1.863              2.300
 Vibration    16          0.633              1.854              2.229
 Vibration    17          0.640              1.832              2.081
 Vibration    18          0.658              1.777              1.791
 Vibration    19          0.667              1.748              1.671
 Vibration    20          0.673              1.732              1.609
 Vibration    21          0.732              1.561              1.135
 Vibration    22          0.756              1.498              1.011
 Vibration    23          0.760              1.485              0.988
 Vibration    24          0.775              1.446              0.922
 Vibration    25          0.779              1.436              0.907
 Vibration    26          0.795              1.397              0.846
 Vibration    27          0.836              1.295              0.710
 Vibration    28          0.838              1.290              0.705
 Vibration    29          0.868              1.222              0.628
 Vibration    30          0.910              1.129              0.534
 Vibration    31          0.954              1.040              0.456
 Vibration    32          0.973              1.003              0.426

 1\1\GINC-BLG9248\Freq\UB3LYP\6-31G(d,p)\C16H20N2O2\RZK\14-Jun-2019\0\\
 #p freq ub3lyp/6-31g(d,p) scrf=(iefpcm,solvent=acetonitrile) guess=(mi
 x,always) empiricaldispersion=gd3\\Title Card Required\\0,1\C,0.76648,
 -1.595915,-0.67528\H,4.09817,-0.655976,1.181354\C,1.335606,1.533462,0.
 760153\O,2.237611,1.913355,0.007408\O,1.615597,-2.089354,0.264031\N,4.
 367223,0.012739,-0.580148\H,4.219893,-0.193244,-1.56136\N,4.098947,-1.
 030977,0.227912\H,2.562275,-1.824062,0.086299\H,4.023896,0.93374,-0.29
 9431\C,1.368936,-0.984241,-1.902344\H,0.660954,-0.942951,-2.730936\H,1

 Normal termination of Gaussian 16 at Fri Jun 14 13:14:15 2019.
