 Gaussian 16, Revision A.03,
 Gaussian 16:  ES64L-G16RevA.03 25-Dec-2016

 ----------------------------------------------------------------------
 #p opt ub3lyp/6-31g(d,p) scrf=(iefpcm,solvent=acetonitrile) guess=(mix
 ,always) empiricaldispersion=gd3
 ----------------------------------------------------------------------

 -------------------
 Title Card Required
 -------------------
 Symbolic Z-matrix:
 Charge =  0 Multiplicity = 1

 SCF Done:  E(UB3LYP) =  -881.637996521     A.U. after   27 cycles
 SCF Done:  E(UB3LYP) =  -881.636367345     A.U. after   27 cycles
 SCF Done:  E(UB3LYP) =  -881.637317595     A.U. after   30 cycles
 SCF Done:  E(UB3LYP) =  -881.640009770     A.U. after   28 cycles
 SCF Done:  E(UB3LYP) =  -881.648147269     A.U. after   29 cycles
 SCF Done:  E(UB3LYP) =  -881.647487518     A.U. after   27 cycles
 SCF Done:  E(UB3LYP) =  -881.649001857     A.U. after   26 cycles
 SCF Done:  E(UB3LYP) =  -881.649910592     A.U. after   28 cycles
 SCF Done:  E(UB3LYP) =  -881.650929165     A.U. after   27 cycles
 SCF Done:  E(UB3LYP) =  -881.652112092     A.U. after   28 cycles
 SCF Done:  E(UB3LYP) =  -881.694210956     A.U. after   18 cycles
 SCF Done:  E(UB3LYP) =  -881.694211688     A.U. after   18 cycles
 SCF Done:  E(UB3LYP) =  -881.694212212     A.U. after   18 cycles
 SCF Done:  E(UB3LYP) =  -881.694212535     A.U. after   18 cycles
 SCF Done:  E(UB3LYP) =  -881.694212895     A.U. after   18 cycles
 SCF Done:  E(UB3LYP) =  -881.694212917     A.U. after   18 cycles
 SCF Done:  E(UB3LYP) =  -881.694213068     A.U. after   18 cycles
 SCF Done:  E(UB3LYP) =  -881.694212968     A.U. after   18 cycles
 SCF Done:  E(UB3LYP) =  -881.694213075     A.U. after   18 cycles
 SCF Done:  E(UB3LYP) =  -881.694213015     A.U. after   18 cycles
 Optimization completed.
    -- Stationary point found.

                         Standard orientation:
 ---------------------------------------------------------------------
 Center     Atomic      Atomic             Coordinates (Angstroms)
 Number     Number       Type             X           Y           Z
 ---------------------------------------------------------------------
      1          6           0        0.766480   -1.595915   -0.675280
      2          1           0        4.098170   -0.655976    1.181354
      3          6           0        1.335606    1.533462    0.760153
      4          8           0        2.237611    1.913355    0.007408
      5          8           0        1.615597   -2.089354    0.264031
      6          7           0        4.367223    0.012739   -0.580148
      7          1           0        4.219893   -0.193244   -1.561360
      8          7           0        4.098947   -1.030977    0.227912
      9          1           0        2.562275   -1.824062    0.086299
     10          1           0        4.023896    0.933740   -0.299431
     11          6           0        1.368936   -0.984241   -1.902344
     12          1           0        0.660954   -0.942951   -2.730936
     13          1           0        1.717585    0.040294   -1.712010
     14          1           0        2.231334   -1.574110   -2.234670
     15          6           0        1.668400    0.787463    2.032580
     16          1           0        1.076318    1.135376    2.882036
     17          1           0        1.461336   -0.279334    1.885780
     18          1           0        2.728144    0.919232    2.255094
     19          6           0       -0.620681   -1.671086   -0.382102
     20          6           0       -1.070394   -2.204599    0.864158
     21          6           0       -1.622170   -1.217071   -1.289935
     22          6           0       -2.422472   -2.280125    1.166475
     23          1           0       -0.333620   -2.552403    1.578897
     24          6           0       -2.969302   -1.303960   -0.973281
     25          1           0       -1.334856   -0.777352   -2.238437
     26          6           0       -3.390148   -1.836404    0.253927
     27          1           0       -2.731116   -2.689218    2.125259
     28          1           0       -3.705546   -0.941630   -1.685709
     29          1           0       -4.446744   -1.897399    0.495652
     30          6           0       -0.089300    1.785984    0.410997
     31          6           0       -0.375739    2.518137   -0.754481
     32          6           0       -1.150817    1.314386    1.200881
     33          6           0       -1.692700    2.784608   -1.114460
     34          1           0        0.450671    2.872277   -1.360875
     35          6           0       -2.468948    1.579831    0.837001
     36          1           0       -0.957405    0.718707    2.084683
     37          6           0       -2.742224    2.318498   -0.315567
     38          1           0       -1.904686    3.353822   -2.014463
     39          1           0       -3.281764    1.193296    1.442158
     40          1           0       -3.770851    2.522782   -0.597514
 ---------------------------------------------------------------------

 The electronic state is 1-A.
 Alpha  occ. eigenvalues --  -19.16062 -19.14734 -14.38814 -14.36005 -10.28465
 Alpha  occ. eigenvalues --  -10.23236 -10.20048 -10.19869 -10.19852 -10.19656
 Alpha  occ. eigenvalues --  -10.19471 -10.19341 -10.18892 -10.18627 -10.18482
 Alpha  occ. eigenvalues --  -10.18197 -10.18129 -10.17775 -10.17550 -10.17513
 Alpha  occ. eigenvalues --   -1.04248  -1.03662  -0.99306  -0.85974  -0.84032
 Alpha  occ. eigenvalues --   -0.77383  -0.76556  -0.75038  -0.74414  -0.73346
 Alpha  occ. eigenvalues --   -0.73006  -0.71773  -0.63388  -0.63032  -0.60622
 Alpha  occ. eigenvalues --   -0.59073  -0.56445  -0.55816  -0.54606  -0.51215
 Alpha  occ. eigenvalues --   -0.50968  -0.48943  -0.47834  -0.46549  -0.46208
 Alpha  occ. eigenvalues --   -0.45249  -0.45116  -0.44473  -0.43787  -0.42481
 Alpha  occ. eigenvalues --   -0.42253  -0.42032  -0.41597  -0.40969  -0.40260
 Alpha  occ. eigenvalues --   -0.39056  -0.37992  -0.37754  -0.36886  -0.35767
 Alpha  occ. eigenvalues --   -0.35281  -0.34463  -0.34431  -0.33980  -0.32978
 Alpha  occ. eigenvalues --   -0.32039  -0.30770  -0.26265  -0.26157  -0.25516
 Alpha  occ. eigenvalues --   -0.24226  -0.23684  -0.20083
 Alpha virt. eigenvalues --   -0.06563  -0.04734  -0.00511   0.01229   0.03859
 Alpha virt. eigenvalues --    0.05964   0.06952   0.09327   0.09930   0.10622
 Alpha virt. eigenvalues --    0.12843   0.13068   0.14493   0.14900   0.15784

  Beta  occ. eigenvalues --  -19.16302 -19.14741 -14.38053 -14.34666 -10.28474
  Beta  occ. eigenvalues --  -10.24131 -10.20045 -10.19877 -10.19862 -10.19660
  Beta  occ. eigenvalues --  -10.19468 -10.19338 -10.18713 -10.18625 -10.18417
  Beta  occ. eigenvalues --  -10.18072 -10.18061 -10.17980 -10.17834 -10.17824
  Beta  occ. eigenvalues --   -1.04343  -1.04210  -0.97209  -0.85984  -0.84358
  Beta  occ. eigenvalues --   -0.77428  -0.77244  -0.75044  -0.73639  -0.73064
  Beta  occ. eigenvalues --   -0.72137  -0.71630  -0.64240  -0.63055  -0.60627
  Beta  occ. eigenvalues --   -0.59238  -0.56631  -0.55565  -0.54093  -0.51248
  Beta  occ. eigenvalues --   -0.51045  -0.49247  -0.47134  -0.46538  -0.46208
  Beta  occ. eigenvalues --   -0.45661  -0.45482  -0.44468  -0.43729  -0.42724
  Beta  occ. eigenvalues --   -0.42486  -0.42126  -0.42050  -0.41053  -0.39087
  Beta  occ. eigenvalues --   -0.38443  -0.38218  -0.37650  -0.36284  -0.35771
  Beta  occ. eigenvalues --   -0.34788  -0.34518  -0.34456  -0.34222  -0.33144
  Beta  occ. eigenvalues --   -0.31898  -0.28984  -0.26636  -0.26153  -0.25559
  Beta  occ. eigenvalues --   -0.25272  -0.24505  -0.14038
  Beta virt. eigenvalues --   -0.06485  -0.05598  -0.00539   0.00596   0.03375
  Beta virt. eigenvalues --    0.03975   0.07194   0.09505   0.09979   0.10677
  Beta virt. eigenvalues --    0.12878   0.13063   0.14460   0.15007   0.15786

 Mulliken charges and spin densities:
               1          2
     1  C    0.245511  -0.580647
     2  H    0.270626  -0.022265
     3  C    0.407129  -0.006881
     4  O   -0.519677  -0.004147
     5  O   -0.573229  -0.072476
     6  N   -0.386128   0.329896
     7  H    0.300523  -0.008579
     8  N   -0.451460   0.666023
     9  H    0.360737   0.004200
    10  H    0.306195   0.001971
    11  C   -0.401877   0.052636
    12  H    0.128217  -0.005865
    13  H    0.137435  -0.036335
    14  H    0.123494  -0.017642
    15  C   -0.418598   0.000795
    16  H    0.139921   0.000944
    17  H    0.165100  -0.002606
    18  H    0.127651   0.000066
    19  C    0.100414   0.147309
    20  C   -0.142659  -0.222503
    21  C   -0.141857  -0.218621
    22  C   -0.102002   0.117209
    23  H    0.092047   0.009940
    24  C   -0.099515   0.115150
    25  H    0.084331   0.009693
    26  C   -0.115289  -0.251030
    27  H    0.088225  -0.004209
    28  H    0.087544  -0.004051
    29  H    0.085685   0.011812
    30  C    0.054648   0.002653
    31  C   -0.110546  -0.004460
    32  C   -0.108876  -0.007663
    33  C   -0.102294   0.003189
    34  H    0.109125   0.000173
    35  C   -0.084543   0.003589
    36  H    0.108185   0.000086
    37  C   -0.084573  -0.007220
    38  H    0.106938  -0.000118
    39  H    0.105078  -0.000361
    40  H    0.108361   0.000344
 Sum of Mulliken charges =  -0.00000  -0.00000

 Dipole moment (field-independent basis, Debye):
    X=             -0.8068    Y=              3.2795    Z=             -0.0554  Tot=              3.3778
 Quadrupole moment (field-independent basis, Debye-Ang):
   XX=           -112.6047   YY=           -130.5055   ZZ=           -104.4688
   XY=             -0.4763   XZ=             -1.2558   YZ=             -1.9611

 1\1\GINC-BLG4715\FOpt\UB3LYP\6-31G(d,p)\C16H20N2O2\RZK\02-Jun-2019\0\\
 #p opt ub3lyp/6-31g(d,p) scrf=(iefpcm,solvent=acetonitrile) guess=(mix
 ,always) empiricaldispersion=gd3\\Title Card Required\\0,1\C,0.9308743
 731,-1.4390552872,-0.7763992377\H,4.1234050704,-0.3006522394,1.2091783
 316\C,1.1443425282,1.6072080685,0.9124125636\O,2.0071136777,2.14097872
 82,0.2086565807\O,1.8193661072,-1.9129013496,0.1362001905\N,4.33537092
 35,0.5329421466,-0.4886577292\H,4.2205845815,0.3922022422,-1.485617828
 2\N,4.1738691862,-0.5952663473,0.229212368\H,2.7334431113,-1.534302105

 Normal termination of Gaussian 16 at Sun Jun  2 14:34:55 2019.
