 Gaussian 16, Revision B.01,
 Gaussian 16:  ES64L-G16RevB.01 20-Dec-2017

 ----------------------------------------------------------------------
 #p opt td=(50-50,nstates=12,root=08) ub3lyp/6-31g(d,p) scrf=(iefpcm,so
 lvent=acetonitrile) guess=(core,mix,always) empiricaldispersion=gd3
 ----------------------------------------------------------------------

 -------------------
 Title Card Required
 -------------------
 Symbolic Z-matrix:
 Charge =  0 Multiplicity = 1

 SCF Done:  E(UB3LYP) =  -384.925582213     A.U. after   20 cycles
 Total Energy, E(TD-HF/TD-DFT) =  -384.736364592
 SCF Done:  E(UB3LYP) =  -384.919583263     A.U. after   20 cycles
 Total Energy, E(TD-HF/TD-DFT) =  -384.742732984
 SCF Done:  E(UB3LYP) =  -384.919256716     A.U. after   20 cycles
 Total Energy, E(TD-HF/TD-DFT) =  -384.742883606
 SCF Done:  E(UB3LYP) =  -384.919192891     A.U. after   20 cycles
 Total Energy, E(TD-HF/TD-DFT) =  -384.742893306
 SCF Done:  E(UB3LYP) =  -384.919215829     A.U. after   20 cycles

 Excitation energies and oscillator strengths:

 Excited State   1:  3.000-A      3.1849 eV  389.28 nm  f=0.0000  <S**2>=2.000
     30A -> 33A       -0.40325
     30A -> 34A       -0.24244
     30A -> 35A       -0.10063
     31A -> 33A       -0.43675
     31A -> 34A        0.26721
     30B -> 33B        0.40325
     30B -> 34B        0.24244
     30B -> 35B        0.10063
     31B -> 33B        0.43675
     31B -> 34B       -0.26721

 Excited State   2:  3.000-A      3.3098 eV  374.60 nm  f=0.0000  <S**2>=2.000
     32A -> 33A       -0.68531
     32A -> 35A        0.16865
     32B -> 33B        0.68531
     32B -> 35B       -0.16865

 Excited State   3:  1.000-A      3.8188 eV  324.67 nm  f=0.0000  <S**2>=0.000
     32A -> 33A        0.69514
     32A -> 35A       -0.12466
     32B -> 33B        0.69513
     32B -> 35B       -0.12466

 Excited State   4:  3.000-A      3.8988 eV  318.00 nm  f=0.0000  <S**2>=2.000
     30A -> 33A       -0.48702
     30A -> 34A       -0.12696
     31A -> 33A        0.47980
     30B -> 33B        0.48702
     30B -> 34B        0.12696
     31B -> 33B       -0.47980

 Excited State   5:  3.000-A      4.1722 eV  297.17 nm  f=0.0000  <S**2>=2.000
     30A -> 33A       -0.27115
     30A -> 34A        0.38811
     31A -> 33A       -0.23871
     31A -> 34A       -0.46071
     30B -> 33B        0.27115
     30B -> 34B       -0.38811
     31B -> 33B        0.23871
     31B -> 34B        0.46071

 Excited State   6:  1.000-A      4.6048 eV  269.25 nm  f=0.0327  <S**2>=0.000
     30A -> 33A       -0.42721
     30A -> 34A        0.19327
     31A -> 33A        0.49558
     31A -> 34A        0.18461
     30B -> 33B       -0.42721
     30B -> 34B        0.19327
     31B -> 33B        0.49558
     31B -> 34B        0.18461

 Excited State   7:  1.000-A      4.9608 eV  249.93 nm  f=0.3886  <S**2>=0.000
     30A -> 33A        0.51826
     31A -> 33A        0.46424
     30B -> 33B        0.51826
     31B -> 33B        0.46424

 Excited State   8:  3.000-A      4.7980 eV  258.41 nm  f=0.0000  <S**2>=2.000
     30A -> 33A       -0.11317
     30A -> 34A        0.52022
     31A -> 34A        0.45096
     30B -> 33B        0.11317
     30B -> 34B       -0.52022
     31B -> 34B       -0.45096
 This state for optimization and/or second-order correction.
 Total Energy, E(TD-HF/TD-DFT) =  -384.742893699
 Copying the excited state density for this state as the 1-particle RhoCI density.

 Excited State   9:  3.000-A      5.3181 eV  233.14 nm  f=0.0000  <S**2>=2.000
     22A -> 33A       -0.13770
     26A -> 33A        0.16764
     26A -> 35A       -0.11324
     29A -> 33A       -0.54112
     29A -> 35A        0.11603
     30A -> 35A        0.22731
     31A -> 35A        0.26544
     22B -> 33B        0.13770
     26B -> 33B       -0.16764
     26B -> 35B        0.11324
     29B -> 33B        0.54112
     29B -> 35B       -0.11603
     30B -> 35B       -0.22731
     31B -> 35B       -0.26544

 Excited State  10:  3.000-A      5.4623 eV  226.98 nm  f=0.0000  <S**2>=2.000
     32A -> 34A        0.70428
     32B -> 34B       -0.70428

 Excited State  11:  1.000-A      5.4910 eV  225.80 nm  f=0.0000  <S**2>=0.000
     32A -> 34A        0.70589
     32B -> 34B        0.70589

 Excited State  12:  1.000-A      5.9220 eV  209.36 nm  f=0.2631  <S**2>=0.000
     30A -> 33A        0.19490
     30A -> 34A        0.43911
     30A -> 35A       -0.15699
     31A -> 33A       -0.17109
     31A -> 34A        0.43285
     31A -> 35A        0.16271
     30B -> 33B        0.19490
     30B -> 34B        0.43911
     30B -> 35B       -0.15699
     31B -> 33B       -0.17109
     31B -> 34B        0.43285
     31B -> 35B        0.16271

 Optimization completed.
    -- Stationary point found.

                         Standard orientation:
 ---------------------------------------------------------------------
 Center     Atomic      Atomic             Coordinates (Angstroms)
 Number     Number       Type             X           Y           Z
 ---------------------------------------------------------------------
      1          6           0       -1.700092   -0.196906    0.000241
      2          8           0       -2.206386   -1.315904    0.000164
      3          6           0       -2.557866    1.046800   -0.000195
      4          1           0       -2.346525    1.661393    0.881117
      5          1           0       -2.346042    1.661153   -0.881557
      6          1           0       -3.607987    0.754936   -0.000432
      7          6           0       -0.197169   -0.060780    0.000121
      8          6           0        0.558529   -1.267387   -0.000035
      9          6           0        0.405492    1.232809    0.000186
     10          6           0        1.987010   -1.176694   -0.000196
     11          1           0        0.038969   -2.214183   -0.000066
     12          6           0        1.836635    1.328012    0.000025
     13          1           0       -0.203987    2.125042    0.000325
     14          6           0        2.582117    0.116646   -0.000162
     15          1           0        2.614581   -2.058641   -0.000349
     16          1           0        2.345605    2.282381    0.000014
     17          1           0        3.668537    0.180149   -0.000284
 ---------------------------------------------------------------------

 The electronic state is 1-A.
 Alpha  occ. eigenvalues --  -19.13992 -10.28095 -10.21070 -10.20797 -10.20699
 Alpha  occ. eigenvalues --  -10.20654 -10.20645 -10.20574 -10.18743  -1.03729
 Alpha  occ. eigenvalues --   -0.84960  -0.76932  -0.74765  -0.72798  -0.62352
 Alpha  occ. eigenvalues --   -0.61086  -0.54725  -0.51021  -0.46712  -0.45675
 Alpha  occ. eigenvalues --   -0.44572  -0.44199  -0.43099  -0.41534  -0.38832
 Alpha  occ. eigenvalues --   -0.37404  -0.35550  -0.35301  -0.34983  -0.25791
 Alpha  occ. eigenvalues --   -0.25597  -0.25365
 Alpha virt. eigenvalues --   -0.05782  -0.01962   0.03493   0.09513   0.12002
 Alpha virt. eigenvalues --    0.14718   0.14904   0.15322   0.16557   0.17922
 Alpha virt. eigenvalues --    0.18369   0.19494   0.22011   0.25945   0.28147

  Beta  occ. eigenvalues --  -19.13992 -10.28095 -10.21070 -10.20797 -10.20699
  Beta  occ. eigenvalues --  -10.20654 -10.20645 -10.20574 -10.18743  -1.03729
  Beta  occ. eigenvalues --   -0.84960  -0.76932  -0.74765  -0.72798  -0.62352
  Beta  occ. eigenvalues --   -0.61086  -0.54725  -0.51021  -0.46712  -0.45675
  Beta  occ. eigenvalues --   -0.44572  -0.44199  -0.43099  -0.41534  -0.38832
  Beta  occ. eigenvalues --   -0.37404  -0.35550  -0.35301  -0.34983  -0.25791
  Beta  occ. eigenvalues --   -0.25597  -0.25365
  Beta virt. eigenvalues --   -0.05782  -0.01962   0.03493   0.09513   0.12002
  Beta virt. eigenvalues --    0.14718   0.14904   0.15322   0.16557   0.17922
  Beta virt. eigenvalues --    0.18369   0.19494   0.22011   0.25945   0.28147

 Mulliken charges and spin densities:
               1          2
     1  C    0.398308  -0.000000
     2  O   -0.502893   0.000001
     3  C   -0.402060   0.000000
     4  H    0.149003  -0.000000
     5  H    0.149016  -0.000000
     6  H    0.132101  -0.000000
     7  C    0.032677   0.000003
     8  C   -0.108602  -0.000003
     9  C   -0.128182  -0.000003
    10  C   -0.103934   0.000003
    11  H    0.119050   0.000000
    12  C   -0.105646   0.000003
    13  H    0.117805   0.000000
    14  C   -0.091883  -0.000003
    15  H    0.116706  -0.000000
    16  H    0.118510  -0.000000
    17  H    0.110025   0.000000
 Sum of Mulliken charges =  -0.00000   0.00000

 Dipole moment (field-independent basis, Debye):
    X=              2.3336    Y=              3.1910    Z=             -0.0003  Tot=              3.9533
 Quadrupole moment (field-independent basis, Debye-Ang):
   XX=            -49.7965   YY=            -48.9852   ZZ=            -54.3492
   XY=             -7.3896   XZ=             -0.0004   YZ=              0.0011

 Normal termination of Gaussian 16 at Fri May 10 12:40:33 2019.
