 Gaussian 16, Revision B.01,
 Gaussian 16:  ES64L-G16RevB.01 20-Dec-2017

 ----------------------------------------------------------------------
 #p opt td=(50-50,nstates=12,root=10) ub3lyp/6-31g(d,p) scrf=(iefpcm,so
 lvent=acetonitrile) guess=(core,mix,always) empiricaldispersion=gd3
 ----------------------------------------------------------------------

 -------------------
 Title Card Required
 -------------------
 Symbolic Z-matrix:
 Charge =  0 Multiplicity = 1

 SCF Done:  E(UB3LYP) =  -384.925582213     A.U. after   20 cycles
 Total Energy, E(TD-HF/TD-DFT) =  -384.713440120
 SCF Done:  E(UB3LYP) =  -384.917461145     A.U. after   23 cycles
 Total Energy, E(TD-HF/TD-DFT) =  -384.724663261
 SCF Done:  E(UB3LYP) =  -384.911006354     A.U. after   23 cycles
 Total Energy, E(TD-HF/TD-DFT) =  -384.725993500
 SCF Done:  E(UB3LYP) =  -384.909762806     A.U. after   23 cycles
 Total Energy, E(TD-HF/TD-DFT) =  -384.726129923
 SCF Done:  E(UB3LYP) =  -384.909359042     A.U. after   23 cycles
 Total Energy, E(TD-HF/TD-DFT) =  -384.726181813
 SCF Done:  E(UB3LYP) =  -384.909458628     A.U. after   23 cycles
 Total Energy, E(TD-HF/TD-DFT) =  -384.726191835
 SCF Done:  E(UB3LYP) =  -384.909529490     A.U. after   23 cycles

 Excitation energies and oscillator strengths:

 Excited State   1:  3.000-A      3.0752 eV  403.18 nm  f=0.0000  <S**2>=2.000
     32A -> 33A       -0.68657
     32A -> 35A        0.16290
     32B -> 33B        0.68657
     32B -> 35B       -0.16290

 Excited State   2:  3.000-A      3.2714 eV  378.99 nm  f=0.0000  <S**2>=2.000
     30A -> 33A        0.46499
     31A -> 33A        0.18128
     31A -> 34A        0.48853
     30B -> 33B       -0.46499
     31B -> 33B       -0.18128
     31B -> 34B       -0.48853
     31A <- 34A        0.10489
     31B <- 34B       -0.10489

 Excited State   3:  1.000-A      3.5616 eV  348.12 nm  f=0.0001  <S**2>=0.000
     32A -> 33A        0.69662
     32A -> 35A       -0.11662
     32B -> 33B        0.69662
     32B -> 35B       -0.11662

 Excited State   4:  3.000-A      3.8814 eV  319.43 nm  f=0.0000  <S**2>=2.000
     30A -> 33A        0.15321
     30A -> 34A       -0.14635
     31A -> 33A       -0.66375
     30B -> 33B       -0.15321
     30B -> 34B        0.14635
     31B -> 33B        0.66376

 Excited State   5:  3.000-A      4.1364 eV  299.74 nm  f=0.0000  <S**2>=2.000
     30A -> 33A        0.49018
     31A -> 34A       -0.49516
     30B -> 33B       -0.49018
     31B -> 34B        0.49516

 Excited State   6:  1.000-A      4.6336 eV  267.58 nm  f=0.0390  <S**2>=0.000
     30A -> 34A        0.26071
     31A -> 33A       -0.64811
     30B -> 34B        0.26071
     31B -> 33B       -0.64811

 Excited State   7:  3.000-A      4.8537 eV  255.44 nm  f=0.0000  <S**2>=2.000
     30A -> 34A        0.68221
     31A -> 33A       -0.12645
     30B -> 34B       -0.68221
     31B -> 33B        0.12645

 Excited State   8:  1.000-A      5.2397 eV  236.63 nm  f=0.3540  <S**2>=0.000
     30A -> 33A       -0.67545
     31A -> 33A       -0.11573
     31A -> 34A       -0.15624
     30B -> 33B       -0.67545
     31B -> 33B       -0.11572
     31B -> 34B       -0.15624

 Excited State   9:  1.000-A      5.0099 eV  247.48 nm  f=0.0000  <S**2>=0.000
     32A -> 34A       -0.70617
     32B -> 34B       -0.70618

 Excited State  10:  3.000-A      4.9888 eV  248.52 nm  f=0.0000  <S**2>=2.000
     32A -> 34A       -0.70492
     32B -> 34B        0.70491
 This state for optimization and/or second-order correction.
 Total Energy, E(TD-HF/TD-DFT) =  -384.726193891
 Copying the excited state density for this state as the 1-particle RhoCI density.

 Excited State  11:  3.000-A      5.4504 eV  227.48 nm  f=0.0000  <S**2>=2.000
     22A -> 33A       -0.13783
     26A -> 33A        0.11809
     29A -> 33A       -0.58610
     29A -> 35A        0.12054
     30A -> 35A       -0.27991
     22B -> 33B        0.13783
     26B -> 33B       -0.11809
     29B -> 33B        0.58610
     29B -> 35B       -0.12054
     30B -> 35B        0.27991

 Excited State  12:  1.000-A      6.0080 eV  206.36 nm  f=0.5170  <S**2>=0.000
     30A -> 33A       -0.16460
     30A -> 34A        0.36320
     31A -> 33A        0.17572
     31A -> 34A        0.53329
     31A -> 35A       -0.12360
     30B -> 33B       -0.16460
     30B -> 34B        0.36320
     31B -> 33B        0.17572
     31B -> 34B        0.53329
     31B -> 35B       -0.12360

 Optimization completed.
    -- Stationary point found.

                         Standard orientation:
 ---------------------------------------------------------------------
 Center     Atomic      Atomic             Coordinates (Angstroms)
 Number     Number       Type             X           Y           Z
 ---------------------------------------------------------------------
      1          6           0       -1.631480   -0.202369   -0.000217
      2          8           0       -2.255156   -1.255157    0.000115
      3          6           0       -2.582648    1.014616    0.000041
      4          1           0       -2.339206    1.579640    0.900014
      5          1           0       -2.339474    1.579777   -0.899919
      6          1           0       -3.623401    0.700201    0.000175
      7          6           0       -0.177205   -0.074121   -0.000114
      8          6           0        0.569157   -1.270183   -0.000050
      9          6           0        0.377222    1.213338   -0.000039
     10          6           0        2.016405   -1.148414    0.000033
     11          1           0        0.080263   -2.235549   -0.000093
     12          6           0        1.829819    1.311389    0.000041
     13          1           0       -0.229694    2.108501   -0.000044
     14          6           0        2.579009    0.130306    0.000081
     15          1           0        2.637855   -2.036064    0.000055
     16          1           0        2.307021    2.283601    0.000082
     17          1           0        3.666206    0.213775    0.000158
 ---------------------------------------------------------------------

 The electronic state is 1-A.
 Alpha  occ. eigenvalues --  -19.13219 -10.27296 -10.21309 -10.21083 -10.20773
 Alpha  occ. eigenvalues --  -10.20755 -10.20730 -10.20499 -10.18061  -1.03548
 Alpha  occ. eigenvalues --   -0.85831  -0.77662  -0.74854  -0.72185  -0.62964
 Alpha  occ. eigenvalues --   -0.61805  -0.54996  -0.50614  -0.46586  -0.46116
 Alpha  occ. eigenvalues --   -0.44688  -0.44380  -0.43049  -0.40537  -0.39246
 Alpha  occ. eigenvalues --   -0.37830  -0.36336  -0.35048  -0.34961  -0.26610
 Alpha  occ. eigenvalues --   -0.25557  -0.24137
 Alpha virt. eigenvalues --   -0.05623  -0.02621   0.04698   0.09348   0.12054
 Alpha virt. eigenvalues --    0.14821   0.15285   0.15545   0.16275   0.17718
 Alpha virt. eigenvalues --    0.18211   0.19360   0.21257   0.26021   0.27870

  Beta  occ. eigenvalues --  -19.13219 -10.27296 -10.21309 -10.21083 -10.20773
  Beta  occ. eigenvalues --  -10.20755 -10.20730 -10.20499 -10.18061  -1.03548
  Beta  occ. eigenvalues --   -0.85831  -0.77662  -0.74854  -0.72185  -0.62964
  Beta  occ. eigenvalues --   -0.61805  -0.54996  -0.50614  -0.46586  -0.46116
  Beta  occ. eigenvalues --   -0.44688  -0.44380  -0.43049  -0.40537  -0.39246
  Beta  occ. eigenvalues --   -0.37830  -0.36336  -0.35048  -0.34961  -0.26610
  Beta  occ. eigenvalues --   -0.25557  -0.24137
  Beta virt. eigenvalues --   -0.05623  -0.02621   0.04698   0.09348   0.12054
  Beta virt. eigenvalues --    0.14821   0.15285   0.15545   0.16275   0.17718
  Beta virt. eigenvalues --    0.18211   0.19360   0.21257   0.26021   0.27870

 Mulliken charges and spin densities:
               1          2
     1  C    0.373099   0.000000
     2  O   -0.509624  -0.000000
     3  C   -0.391739  -0.000000
     4  H    0.133928   0.000000
     5  H    0.133904   0.000000
     6  H    0.130820   0.000000
     7  C    0.065879  -0.000000
     8  C   -0.110217  -0.000000
     9  C   -0.129739   0.000000
    10  C   -0.106165   0.000000
    11  H    0.122815  -0.000000
    12  C   -0.109363  -0.000000
    13  H    0.125915   0.000000
    14  C   -0.078567  -0.000000
    15  H    0.118333  -0.000000
    16  H    0.118655   0.000000
    17  H    0.112066  -0.000000
 Sum of Mulliken charges =  -0.00000   0.00000

 Dipole moment (field-independent basis, Debye):
    X=              3.0677    Y=              2.8573    Z=             -0.0004  Tot=              4.1923
 Quadrupole moment (field-independent basis, Debye-Ang):
   XX=            -51.0436   YY=            -49.1719   ZZ=            -54.1549
   XY=             -6.7197   XZ=              0.0013   YZ=              0.0008

 Normal termination of Gaussian 16 at Fri May 10 12:45:37 2019.
