 Gaussian 16, Revision B.01,
 Gaussian 16:  ES64L-G16RevB.01 20-Dec-2017

 ----------------------------------------------------------------------
 #p opt td=(50-50,nstates=12,root=05) ub3lyp/6-31g(d,p) scrf=(iefpcm,so
 lvent=acetonitrile) guess=(core,mix,always) empiricaldispersion=gd3
 ----------------------------------------------------------------------

 -------------------
 Title Card Required
 -------------------
 Symbolic Z-matrix:
 Charge =  0 Multiplicity = 1

 SCF Done:  E(UB3LYP) =  -384.925582213     A.U. after   20 cycles
 Total Energy, E(TD-HF/TD-DFT) =  -384.761699824
 SCF Done:  E(UB3LYP) =  -384.915111918     A.U. after   22 cycles
 Total Energy, E(TD-HF/TD-DFT) =  -384.767794533
 SCF Done:  E(UB3LYP) =  -384.916994142     A.U. after   23 cycles
 Total Energy, E(TD-HF/TD-DFT) =  -384.771026476
 SCF Done:  E(UB3LYP) =  -384.917486714     A.U. after   20 cycles
 Total Energy, E(TD-HF/TD-DFT) =  -384.771325882
 SCF Done:  E(UB3LYP) =  -384.917065671     A.U. after   20 cycles
 Total Energy, E(TD-HF/TD-DFT) =  -384.771385512
 SCF Done:  E(UB3LYP) =  -384.916788261     A.U. after   20 cycles

 Excitation energies and oscillator strengths:

 Excited State   1:  3.000-A      3.0665 eV  404.32 nm  f=0.0000  <S**2>=2.000
     31A -> 33A       -0.69012
     31A -> 35A        0.14923
     31B -> 33B        0.69012
     31B -> 35B       -0.14923

 Excited State   2:  3.000-A      3.1083 eV  398.88 nm  f=0.0000  <S**2>=2.000
     30A -> 33A        0.52360
     32A -> 33A        0.21297
     32A -> 34A       -0.40538
     30B -> 33B       -0.52360
     32B -> 33B       -0.21297
     32B -> 34B        0.40538

 Excited State   3:  1.000-A      3.5950 eV  344.88 nm  f=0.0001  <S**2>=0.000
     31A -> 33A        0.69768
     31A -> 35A       -0.11058
     31B -> 33B        0.69767
     31B -> 35B       -0.11058

 Excited State   4:  3.000-A      3.6048 eV  343.94 nm  f=0.0000  <S**2>=2.000
     30A -> 33A        0.19243
     30A -> 34A        0.10575
     32A -> 33A       -0.65953
     30B -> 33B       -0.19243
     30B -> 34B       -0.10575
     32B -> 33B        0.65953

 Excited State   5:  3.000-A      3.9564 eV  313.37 nm  f=0.0000  <S**2>=2.000
     29A -> 33A       -0.12514
     30A -> 33A        0.39667
     32A -> 34A        0.56044
     29B -> 33B        0.12514
     30B -> 33B       -0.39667
     32B -> 34B       -0.56044
 This state for optimization and/or second-order correction.
 Total Energy, E(TD-HF/TD-DFT) =  -384.771391656
 Copying the excited state density for this state as the 1-particle RhoCI density.

 Excited State   6:  1.000-A      4.3114 eV  287.57 nm  f=0.0451  <S**2>=0.000
     30A -> 34A       -0.19093
     32A -> 33A       -0.67630
     30B -> 34B       -0.19093
     32B -> 33B       -0.67630

 Excited State   7:  3.000-A      4.9026 eV  252.90 nm  f=0.0000  <S**2>=2.000
     29A -> 33A        0.19551
     30A -> 34A       -0.65379
     29B -> 33B       -0.19551
     30B -> 34B        0.65379

 Excited State   8:  1.000-A      4.9523 eV  250.36 nm  f=0.4097  <S**2>=0.000
     30A -> 33A       -0.68917
     32A -> 34A        0.10559
     30B -> 33B       -0.68917
     32B -> 34B        0.10559

 Excited State   9:  3.000-A      5.0131 eV  247.32 nm  f=0.0000  <S**2>=2.000
     22A -> 33A       -0.12881
     26A -> 33A       -0.13590
     29A -> 33A       -0.54989
     30A -> 33A       -0.11107
     30A -> 34A       -0.22041
     30A -> 35A       -0.25232
     32A -> 34A       -0.11720
     22B -> 33B        0.12881
     26B -> 33B        0.13590
     29B -> 33B        0.54989
     30B -> 33B        0.11110
     30B -> 34B        0.22041
     30B -> 35B        0.25232
     32B -> 34B        0.11719

 Excited State  10:  3.000-A      5.4534 eV  227.35 nm  f=0.0000  <S**2>=2.000
     31A -> 34A        0.70436
     31B -> 34B       -0.70440

 Excited State  11:  1.000-A      5.4776 eV  226.35 nm  f=0.0000  <S**2>=0.000
     31A -> 34A        0.70609
     31B -> 34B        0.70606

 Excited State  12:  1.000-A      5.9319 eV  209.01 nm  f=0.2777  <S**2>=0.000
     30A -> 34A        0.52881
     32A -> 33A       -0.16103
     32A -> 34A        0.35796
     32A -> 35A        0.22302
     30B -> 34B        0.52881
     32B -> 33B       -0.16103
     32B -> 34B        0.35796
     32B -> 35B        0.22302

 Optimization completed.
    -- Stationary point found.

                         Standard orientation:
 ---------------------------------------------------------------------
 Center     Atomic      Atomic             Coordinates (Angstroms)
 Number     Number       Type             X           Y           Z
 ---------------------------------------------------------------------
      1          6           0       -1.697840   -0.180817   -0.000004
      2          8           0       -2.227948   -1.332356    0.000017
      3          6           0       -2.571253    1.052788    0.000001
      4          1           0       -2.382267    1.677537    0.881310
      5          1           0       -2.382155    1.677637   -0.881210
      6          1           0       -3.618132    0.746480   -0.000077
      7          6           0       -0.239691   -0.049418   -0.000006
      8          6           0        0.552160   -1.229552   -0.000023
      9          6           0        0.407401    1.203308    0.000014
     10          6           0        2.003347   -1.145833   -0.000023
     11          1           0        0.056335   -2.191512   -0.000034
     12          6           0        1.863268    1.283462    0.000016
     13          1           0       -0.164033    2.123033    0.000044
     14          6           0        2.627397    0.108542   -0.000002
     15          1           0        2.591191   -2.056426   -0.000038
     16          1           0        2.342481    2.255507    0.000034
     17          1           0        3.711425    0.171706   -0.000001
 ---------------------------------------------------------------------

 The electronic state is 1-A.
 Alpha  occ. eigenvalues --  -19.13892 -10.28331 -10.21228 -10.20851 -10.20771
 Alpha  occ. eigenvalues --  -10.20681 -10.20606 -10.20554 -10.18926  -1.01701
 Alpha  occ. eigenvalues --   -0.85326  -0.77863  -0.74320  -0.73039  -0.63053
 Alpha  occ. eigenvalues --   -0.61334  -0.55132  -0.51066  -0.46719  -0.45856
 Alpha  occ. eigenvalues --   -0.45093  -0.43980  -0.42096  -0.41092  -0.39042
 Alpha  occ. eigenvalues --   -0.37472  -0.35491  -0.35363  -0.34449  -0.26448
 Alpha  occ. eigenvalues --   -0.25510  -0.25159
 Alpha virt. eigenvalues --   -0.06578  -0.02256   0.03587   0.09450   0.11940
 Alpha virt. eigenvalues --    0.14761   0.14808   0.15283   0.16476   0.18118
 Alpha virt. eigenvalues --    0.18429   0.19436   0.22021   0.25764   0.27688

  Beta  occ. eigenvalues --  -19.13892 -10.28331 -10.21228 -10.20851 -10.20771
  Beta  occ. eigenvalues --  -10.20681 -10.20606 -10.20554 -10.18926  -1.01701
  Beta  occ. eigenvalues --   -0.85326  -0.77863  -0.74320  -0.73039  -0.63053
  Beta  occ. eigenvalues --   -0.61334  -0.55132  -0.51066  -0.46719  -0.45856
  Beta  occ. eigenvalues --   -0.45093  -0.43980  -0.42096  -0.41092  -0.39042
  Beta  occ. eigenvalues --   -0.37472  -0.35491  -0.35363  -0.34449  -0.26448
  Beta  occ. eigenvalues --   -0.25510  -0.25159
  Beta virt. eigenvalues --   -0.06578  -0.02256   0.03587   0.09450   0.11940
  Beta virt. eigenvalues --    0.14761   0.14808   0.15283   0.16476   0.18118
  Beta virt. eigenvalues --    0.18429   0.19436   0.22021   0.25764   0.27688

 Mulliken charges and spin densities:
               1          2
     1  C    0.390324  -0.000001
     2  O   -0.528074   0.000001
     3  C   -0.399492   0.000000
     4  H    0.149985  -0.000000
     5  H    0.149979  -0.000000
     6  H    0.134212  -0.000000
     7  C    0.068303  -0.000001
     8  C   -0.116319   0.000000
     9  C   -0.139295   0.000001
    10  C   -0.105249  -0.000001
    11  H    0.116984  -0.000000
    12  C   -0.107539  -0.000001
    13  H    0.116841  -0.000000
    14  C   -0.079345   0.000001
    15  H    0.115538   0.000000
    16  H    0.116133   0.000000
    17  H    0.117015  -0.000000
 Sum of Mulliken charges =  -0.00000   0.00000

 Dipole moment (field-independent basis, Debye):
    X=              2.6440    Y=              3.3869    Z=              0.0000  Tot=              4.2968
 Quadrupole moment (field-independent basis, Debye-Ang):
   XX=            -49.6478   YY=            -49.4062   ZZ=            -54.3115
   XY=             -7.9005   XZ=              0.0000   YZ=              0.0003

 Normal termination of Gaussian 16 at Fri May 10 12:42:22 2019.
