 Gaussian 16, Revision B.01,
 Gaussian 16:  ES64L-G16RevB.01 20-Dec-2017

 ----------------------------------------------------------------------
 #p opt freq ub3lyp/6-31g(d,p) scrf=(iefpcm,solvent=acetonitrile) empir
 icaldispersion=gd3
 ----------------------------------------------------------------------

 -------------------
 Title Card Required
 -------------------
 Symbolic Z-matrix:
 Charge =  0 Multiplicity = 1

 SCF Done:  E(UB3LYP) =  -496.661241365     A.U. after   20 cycles
 SCF Done:  E(UB3LYP) =  -496.681959858     A.U. after   14 cycles
 SCF Done:  E(UB3LYP) =  -496.693205459     A.U. after   15 cycles
 SCF Done:  E(UB3LYP) =  -496.706835960     A.U. after   15 cycles
 SCF Done:  E(UB3LYP) =  -496.701413307     A.U. after   19 cycles
 SCF Done:  E(UB3LYP) =  -496.715852107     A.U. after   15 cycles
 SCF Done:  E(UB3LYP) =  -496.714520131     A.U. after   12 cycles
 SCF Done:  E(UB3LYP) =  -496.726711693     A.U. after   12 cycles
 SCF Done:  E(UB3LYP) =  -496.733764694     A.U. after   12 cycles
 SCF Done:  E(UB3LYP) =  -496.744922089     A.U. after   12 cycles
 SCF Done:  E(UB3LYP) =  -496.812068456     A.U. after    8 cycles
 SCF Done:  E(UB3LYP) =  -496.812068798     A.U. after    7 cycles
 SCF Done:  E(UB3LYP) =  -496.812069266     A.U. after    7 cycles
 SCF Done:  E(UB3LYP) =  -496.812069700     A.U. after    7 cycles
 SCF Done:  E(UB3LYP) =  -496.812069958     A.U. after    7 cycles
 SCF Done:  E(UB3LYP) =  -496.812070129     A.U. after    7 cycles
 SCF Done:  E(UB3LYP) =  -496.812070268     A.U. after    7 cycles
 SCF Done:  E(UB3LYP) =  -496.812070371     A.U. after    7 cycles
 SCF Done:  E(UB3LYP) =  -496.812070417     A.U. after    7 cycles
 Optimization completed.
    -- Stationary point found.
 Normal termination of Gaussian 16 at Thu May 16 18:19:39 2019.

 ----------------------------------------------------------------------
 #P Geom=AllCheck Guess=TCheck SCRF=Check GenChk UB3LYP/6-31G(d,p) Freq
 ----------------------------------------------------------------------

 Structure from the checkpoint file:  "AH-BnoH-opt.chk"
 -------------------
 Title Card Required
 -------------------
 Charge =  0 Multiplicity = 1

                         Standard orientation:
 ---------------------------------------------------------------------
 Center     Atomic      Atomic             Coordinates (Angstroms)
 Number     Number       Type             X           Y           Z
 ---------------------------------------------------------------------
      1          6           0        0.950957    0.941446    0.649882
      2          8           0        1.606823    0.389418    1.531487
      3          6           0        1.507985    2.140834   -0.085373
      4          1           0        1.591902    1.911613   -1.151020
      5          1           0        0.851912    3.010379    0.024933
      6          1           0        2.495400    2.374779    0.313728
      7          6           0       -0.420730    0.453227    0.306283
      8          6           0       -0.959665   -0.609706    1.048689
      9          6           0       -1.183822    1.020550   -0.725922
     10          6           0       -2.230423   -1.100428    0.762888
     11          1           0       -0.365538   -1.036669    1.849240
     12          6           0       -2.456915    0.528358   -1.013457
     13          1           0       -0.788533    1.841851   -1.313441
     14          6           0       -2.981930   -0.532230   -0.271020
     15          1           0       -2.637638   -1.923035    1.342950
     16          1           0       -3.038178    0.971392   -1.816279
     17          1           0       -3.973359   -0.914144   -0.495801
     18          1           0        1.845934   -1.581356    0.522950
     19          7           0        2.185348   -0.917837   -1.306989
     20          1           0        3.122529   -0.514279   -1.277105
     21          1           0        2.067406   -1.303788   -2.240181
     22          7           0        2.053791   -2.012265   -0.376554
     23          1           0        2.946858   -2.493688   -0.258886
 ---------------------------------------------------------------------

 SCF Done:  E(UB3LYP) =  -496.812070417     A.U. after    1 cycles

 The electronic state is 1-A.
 Alpha  occ. eigenvalues --  -19.13836 -14.33665 -14.33059 -10.27960 -10.20019
 Alpha  occ. eigenvalues --  -10.19964 -10.19956 -10.19622 -10.19619 -10.19552
 Alpha  occ. eigenvalues --  -10.18226  -1.03601  -0.93603  -0.86010  -0.77134
 Alpha  occ. eigenvalues --   -0.75115  -0.73981  -0.72668  -0.62779  -0.60686
 Alpha  occ. eigenvalues --   -0.55070  -0.51026  -0.48742  -0.48447  -0.46359
 Alpha  occ. eigenvalues --   -0.45858  -0.44501  -0.44010  -0.43018  -0.42428
 Alpha  occ. eigenvalues --   -0.41437  -0.38737  -0.37559  -0.35719  -0.35122
 Alpha  occ. eigenvalues --   -0.34479  -0.26262  -0.25838  -0.25432  -0.24580
 Alpha  occ. eigenvalues --   -0.24243
 Alpha virt. eigenvalues --   -0.05488  -0.00762   0.04033   0.08323   0.09766
 Alpha virt. eigenvalues --    0.11081   0.13241   0.14780   0.15283   0.16228
 Alpha virt. eigenvalues --    0.16622   0.17519   0.18363   0.18690   0.20098

  Beta  occ. eigenvalues --  -19.13836 -14.33665 -14.33059 -10.27960 -10.20019
  Beta  occ. eigenvalues --  -10.19964 -10.19956 -10.19622 -10.19619 -10.19552
  Beta  occ. eigenvalues --  -10.18226  -1.03601  -0.93603  -0.86010  -0.77134
  Beta  occ. eigenvalues --   -0.75115  -0.73981  -0.72668  -0.62779  -0.60686
  Beta  occ. eigenvalues --   -0.55070  -0.51026  -0.48742  -0.48447  -0.46359
  Beta  occ. eigenvalues --   -0.45858  -0.44501  -0.44010  -0.43018  -0.42428
  Beta  occ. eigenvalues --   -0.41437  -0.38737  -0.37559  -0.35719  -0.35122
  Beta  occ. eigenvalues --   -0.34479  -0.26262  -0.25838  -0.25432  -0.24580
  Beta  occ. eigenvalues --   -0.24243
  Beta virt. eigenvalues --   -0.05488  -0.00762   0.04033   0.08323   0.09766
  Beta virt. eigenvalues --    0.11081   0.13241   0.14780   0.15283   0.16228
  Beta virt. eigenvalues --    0.16622   0.17519   0.18363   0.18690   0.20098

 Mulliken charges and spin densities:
               1          2
     1  C    0.438627  -0.000000
     2  O   -0.527568  -0.000000
     3  C   -0.398351   0.000000
     4  H    0.150902  -0.000000
     5  H    0.137974  -0.000000
     6  H    0.125174  -0.000000
     7  C    0.069065   0.000000
     8  C   -0.115665  -0.000000
     9  C   -0.129996  -0.000000
    10  C   -0.101585  -0.000000
    11  H    0.108565  -0.000000
    12  C   -0.105459   0.000000
    13  H    0.109356  -0.000000
    14  C   -0.088166   0.000000
    15  H    0.108228   0.000000
    16  H    0.109047   0.000000
    17  H    0.110256   0.000000
    18  H    0.271581   0.000000
    19  N   -0.514317   0.000000
    20  H    0.257797  -0.000000
    21  H    0.266825  -0.000000
    22  N   -0.534271  -0.000000
    23  H    0.251982   0.000000
 Sum of Mulliken charges =   0.00000  -0.00000

 Dipole moment (field-independent basis, Debye):
    X=              0.0853    Y=              1.1356    Z=             -2.6417  Tot=              2.8767
 Quadrupole moment (field-independent basis, Debye-Ang):
   XX=            -51.4212   YY=            -62.1738   ZZ=            -64.3149
   XY=             -0.8858   XZ=             -5.1517   YZ=             -4.0239

  Exact polarizability: 154.360  22.515 115.161  22.817 -31.449 111.607
 Approx polarizability: 180.593  23.743 136.561  34.962 -42.205 143.023

                      1                      2                      3
                      A                      A                      A
 Frequencies --     40.5257                47.9018                78.1716
 Red. masses --      3.5100                 4.2088                 2.3038
 Frc consts  --      0.0034                 0.0057                 0.0083
 IR Inten    --      3.4150                 9.7794                18.9115

                      4                      5                      6
                      A                      A                      A
 Frequencies --     95.3769               110.6113               124.7890
 Red. masses --      3.8553                 4.5365                 1.9750
 Frc consts  --      0.0207                 0.0327                 0.0181
 IR Inten    --     13.2371                16.8866                28.4005

                      7                      8                      9
                      A                      A                      A
 Frequencies --    169.0879               183.7797               196.5423
 Red. masses --      4.2287                 1.2776                 1.4850
 Frc consts  --      0.0712                 0.0254                 0.0338
 IR Inten    --      2.9229                 9.5018                25.9727

                     10                     11                     12
                      A                      A                      A
 Frequencies --    235.4343               376.3485               413.1848
 Red. masses --      3.9515                 4.6656                 2.5689
 Frc consts  --      0.1290                 0.3893                 0.2584
 IR Inten    --      6.8729                 1.2031                 3.1053

                     13                     14                     15
                      A                      A                      A
 Frequencies --    429.7789               439.2957               472.7719
 Red. masses --      2.0989                 1.3879                 4.4675
 Frc consts  --      0.2284                 0.1578                 0.5883
 IR Inten    --      9.4507                34.1487                 1.5633

                     16                     17                     18
                      A                      A                      A
 Frequencies --    596.9725               601.8970               630.4207
 Red. masses --      3.4784                 2.9034                 6.4220
 Frc consts  --      0.7304                 0.6197                 1.5038
 IR Inten    --     41.3381                25.2310                 1.4121

                     19                     20                     21
                      A                      A                      A
 Frequencies --    705.5990               745.6698               778.1711
 Red. masses --      1.9314                 5.0159                 1.6583
 Frc consts  --      0.5665                 1.6432                 0.5917
 IR Inten    --     33.3680                 1.4107                39.9155

                     22                     23                     24
                      A                      A                      A
 Frequencies --    865.8821               868.1955               950.7841
 Red. masses --      1.6030                 1.6244                 1.3443
 Frc consts  --      0.7081                 0.7214                 0.7160
 IR Inten    --     32.2024                31.1258                 3.8452

                     25                     26                     27
                      A                      A                      A
 Frequencies --    969.7758               992.6459              1014.1380
 Red. masses --      2.1694                 1.3575                 1.2976
 Frc consts  --      1.2021                 0.7881                 0.7863
 IR Inten    --     43.0927                 0.2157                 0.4594

                     28                     29                     30
                      A                      A                      A
 Frequencies --   1015.0731              1044.3921              1050.5789
 Red. masses --      5.8286                 1.8542                 2.5397
 Frc consts  --      3.5384                 1.1916                 1.6515
 IR Inten    --      0.7949                 6.2114                 8.4688

                     31                     32                     33
                      A                      A                      A
 Frequencies --   1059.6033              1102.6817              1119.0298
 Red. masses --      1.2195                 2.1273                 1.5533
 Frc consts  --      0.8067                 1.5240                 1.1460
 IR Inten    --    172.0571                 2.1924                10.7405

                     34                     35                     36
                      A                      A                      A
 Frequencies --   1135.8346              1192.7018              1213.5361
 Red. masses --      1.5731                 1.1040                 1.1454
 Frc consts  --      1.1957                 0.9253                 0.9938
 IR Inten    --     26.3165                 1.4862                23.9167

                     37                     38                     39
                      A                      A                      A
 Frequencies --   1288.8190              1311.0639              1345.7279
 Red. masses --      3.2285                 1.2000                 1.8806
 Frc consts  --      3.1597                 1.2153                 2.0066
 IR Inten    --    276.8963                16.6064                 6.9234

                     40                     41                     42
                      A                      A                      A
 Frequencies --   1365.3141              1368.6041              1389.1107
 Red. masses --      2.7347                 1.2212                 1.3700
 Frc consts  --      3.0034                 1.3477                 1.5576
 IR Inten    --      5.5991                 7.0662                89.2774

                     43                     44                     45
                      A                      A                      A
 Frequencies --   1475.5839              1485.9518              1487.5714
 Red. masses --      1.0682                 1.1086                 2.0171
 Frc consts  --      1.3704                 1.4422                 2.6299
 IR Inten    --     17.1140                12.1108                26.6328

                     46                     47                     48
                      A                      A                      A
 Frequencies --   1535.3852              1632.1602              1653.0425
 Red. masses --      2.1663                 5.4174                 5.4281
 Frc consts  --      3.0089                 8.5029                 8.7391
 IR Inten    --      2.0818                23.4220                46.4779

                     49                     50                     51
                      A                      A                      A
 Frequencies --   1672.4401              1694.9274              1740.9442
 Red. masses --      1.0809                 1.1030                 7.2129
 Frc consts  --      1.7812                 1.8669                12.8805
 IR Inten    --     16.3087               103.7764               261.7586

                     52                     53                     54
                      A                      A                      A
 Frequencies --   3056.2279              3130.6028              3164.4154
 Red. masses --      1.0369                 1.0993                 1.1044
 Frc consts  --      5.7064                 6.3481                 6.5156
 IR Inten    --      2.6715                10.9652                23.0161

                     55                     56                     57
                      A                      A                      A
 Frequencies --   3184.4941              3194.2155              3204.4614
 Red. masses --      1.0860                 1.0895                 1.0935
 Frc consts  --      6.4890                 6.5492                 6.6155
 IR Inten    --      0.2077                14.9570                32.0354

                     58                     59                     60
                      A                      A                      A
 Frequencies --   3215.3205              3217.9829              3431.0428
 Red. masses --      1.0929                 1.0958                 1.0531
 Frc consts  --      6.6571                 6.6855                 7.3039
 IR Inten    --     27.9003                 5.4274                33.4651

                     61                     62                     63
                      A                      A                      A
 Frequencies --   3444.3792              3529.7091              3553.2430
 Red. masses --      1.0515                 1.0915                 1.0902
 Frc consts  --      7.3497                 8.0121                 8.1100
 IR Inten    --      4.2972                 9.9125                 1.2829

 - Thermochemistry -
 -------------------
 Temperature   298.150 Kelvin.  Pressure   1.00000 Atm.
 Atom     1 has atomic number  6 and mass  12.00000

 Molecular mass:   152.09496 amu.
 Principal axes and moments of inertia in atomic units:
                           1         2         3
     Eigenvalues --  1231.359322395.754112714.06473
           X            0.99991   0.00398  -0.01276
           Y           -0.00486   0.99756  -0.06971
           Z            0.01245   0.06977   0.99749
 This molecule is an asymmetric top.
 Rotational symmetry number  1.
 Warning -- assumption of classical behavior for rotation
           may cause significant error
 Rotational temperatures (Kelvin)      0.07034     0.03615     0.03191
 Rotational constants (GHZ):           1.46565     0.75331     0.66496
 Zero-point vibrational energy     507455.4 (Joules/Mol)
                                  121.28476 (Kcal/Mol)
 Warning -- explicit consideration of  17 degrees of freedom as
           vibrations may cause significant error
 Vibrational temperatures:     58.31    68.92   112.47   137.23   159.15
          (Kelvin)            179.54   243.28   264.42   282.78   338.74
                              541.48   594.48   618.36   632.05   680.21
                              858.91   866.00   907.03  1015.20  1072.85
                             1119.61  1245.81  1249.14  1367.97  1395.29
                             1428.20  1459.12  1460.46  1502.65  1511.55
                             1524.53  1586.51  1610.03  1634.21  1716.03
                             1746.01  1854.32  1886.33  1936.20  1964.38
                             1969.12  1998.62  2123.04  2137.95  2140.28
                             2209.08  2348.31  2378.36  2406.27  2438.62
                             2504.83  4397.23  4504.24  4552.89  4581.78
                             4595.76  4610.51  4626.13  4629.96  4936.51
                             4955.69  5078.46  5112.32

 Zero-point correction=                           0.193280 (Hartree/Particle)
 Thermal correction to Energy=                    0.205783
 Thermal correction to Enthalpy=                  0.206727
 Thermal correction to Gibbs Free Energy=         0.153491
 Sum of electronic and zero-point Energies=           -496.618791
 Sum of electronic and thermal Energies=              -496.606288
 Sum of electronic and thermal Enthalpies=            -496.605344
 Sum of electronic and thermal Free Energies=         -496.658580

                     E (Thermal)             CV                S
                      KCal/Mol        Cal/Mol-Kelvin    Cal/Mol-Kelvin
 Total                  129.131             43.920            112.045
 Electronic               0.000              0.000              0.000
 Translational            0.889              2.981             40.968
 Rotational               0.889              2.981             30.461
 Vibrational            127.353             37.958             40.616
 Vibration     1          0.594              1.981              5.233
 Vibration     2          0.595              1.978              4.902
 Vibration     3          0.599              1.964              3.936
 Vibration     4          0.603              1.952              3.547
 Vibration     5          0.606              1.941              3.258
 Vibration     6          0.610              1.928              3.025
 Vibration     7          0.625              1.881              2.446
 Vibration     8          0.631              1.862              2.290
 Vibration     9          0.636              1.845              2.165
 Vibration    10          0.655              1.787              1.837
 Vibration    11          0.747              1.521              1.054
 Vibration    12          0.777              1.442              0.915
 Vibration    13          0.791              1.405              0.859
 Vibration    14          0.799              1.384              0.829
 Vibration    15          0.830              1.310              0.730
 Vibration    16          0.955              1.038              0.455
 Vibration    17          0.960              1.028              0.446

 Optimization completed.
    -- Stationary point found.
 Normal termination of Gaussian 16 at Thu May 16 18:21:43 2019.
