 Gaussian 16, Revision B.01,
 Gaussian 16:  ES64L-G16RevB.01 20-Dec-2017

 ----------------------------------------------------------------------
 #p opt td=(50-50,nstates=12,root=06) ub3lyp/6-31g(d,p) scrf=(iefpcm,so
 lvent=acetonitrile) guess=(core,mix,always) empiricaldispersion=gd3
 ----------------------------------------------------------------------

 -------------------
 Title Card Required
 -------------------
 Symbolic Z-matrix:
 Charge =  0 Multiplicity = 1

 SCF Done:  E(UB3LYP) =  -384.925582213     A.U. after   20 cycles
 Total Energy, E(TD-HF/TD-DFT) =  -384.752393911
 SCF Done:  E(UB3LYP) =  -384.918763372     A.U. after   22 cycles
 Total Energy, E(TD-HF/TD-DFT) =  -384.760321374
 SCF Done:  E(UB3LYP) =  -384.916761002     A.U. after   23 cycles
 Total Energy, E(TD-HF/TD-DFT) =  -384.760861090
 SCF Done:  E(UB3LYP) =  -384.916464289     A.U. after   22 cycles
 Total Energy, E(TD-HF/TD-DFT) =  -384.760904083
 SCF Done:  E(UB3LYP) =  -384.916516160     A.U. after   22 cycles

 Excitation energies and oscillator strengths:

 Excited State   1:  3.000-A      3.0355 eV  408.45 nm  f=0.0000  <S**2>=2.000
     31A -> 33A       -0.69062
     31A -> 35A        0.14737
     31B -> 33B        0.69062
     31B -> 35B       -0.14737

 Excited State   2:  3.000-A      3.0791 eV  402.67 nm  f=0.0000  <S**2>=2.000
     28A -> 33A       -0.10346
     30A -> 33A        0.56878
     32A -> 33A        0.24183
     32A -> 34A       -0.31728
     28B -> 33B        0.10346
     30B -> 33B       -0.56878
     32B -> 33B       -0.24184
     32B -> 34B        0.31728

 Excited State   3:  3.000-A      3.5209 eV  352.14 nm  f=0.0000  <S**2>=2.000
     30A -> 33A        0.23362
     32A -> 33A       -0.65187
     30B -> 33B       -0.23362
     32B -> 33B        0.65187

 Excited State   4:  1.000-A      3.5626 eV  348.01 nm  f=0.0001  <S**2>=0.000
     31A -> 33A        0.69794
     31A -> 35A       -0.10918
     31B -> 33B        0.69794
     31B -> 35B       -0.10918

 Excited State   5:  3.000-A      4.0440 eV  306.58 nm  f=0.0000  <S**2>=2.000
     28A -> 33A       -0.11767
     30A -> 33A        0.30601
     32A -> 34A        0.61222
     28B -> 33B        0.11767
     30B -> 33B       -0.30601
     32B -> 34B       -0.61222

 Excited State   6:  1.000-A      4.2344 eV  292.80 nm  f=0.0504  <S**2>=0.000
     30A -> 34A       -0.16616
     32A -> 33A       -0.68272
     30B -> 34B       -0.16616
     32B -> 33B       -0.68271
 This state for optimization and/or second-order correction.
 Total Energy, E(TD-HF/TD-DFT) =  -384.760905319
 Copying the excited state density for this state as the 1-particle RhoCI density.

 Excited State   7:  1.000-A      4.8741 eV  254.37 nm  f=0.4541  <S**2>=0.000
     30A -> 33A       -0.69160
     30B -> 33B       -0.69161

 Excited State   8:  3.000-A      4.9297 eV  251.50 nm  f=0.0000  <S**2>=2.000
     22A -> 33A        0.13485
     26A -> 33A       -0.12341
     28A -> 33A        0.57338
     28A -> 35A       -0.10401
     30A -> 33A        0.13247
     30A -> 34A       -0.16890
     30A -> 35A        0.24263
     22B -> 33B       -0.13485
     26B -> 33B        0.12341
     28B -> 33B       -0.57338
     28B -> 35B        0.10401
     30B -> 33B       -0.13246
     30B -> 34B        0.16890
     30B -> 35B       -0.24263

 Excited State   9:  3.000-A      5.0945 eV  243.37 nm  f=0.0000  <S**2>=2.000
     28A -> 33A       -0.13129
     30A -> 34A       -0.67008
     32A -> 34A       -0.11032
     28B -> 33B        0.13129
     30B -> 34B        0.67008
     32B -> 34B        0.11032

 Excited State  10:  3.000-A      5.6924 eV  217.81 nm  f=0.0000  <S**2>=2.000
     31A -> 34A        0.70207
     31B -> 34B       -0.70205

 Excited State  11:  1.000-A      5.7179 eV  216.84 nm  f=0.0000  <S**2>=0.000
     31A -> 34A        0.70594
     31B -> 34B        0.70596

 Excited State  12:  1.000-A      6.0520 eV  204.87 nm  f=0.1987  <S**2>=0.000
     30A -> 34A       -0.56838
     32A -> 33A        0.14414
     32A -> 34A       -0.27471
     32A -> 35A       -0.26301
     30B -> 34B       -0.56837
     32B -> 33B        0.14414
     32B -> 34B       -0.27471
     32B -> 35B       -0.26301

 Optimization completed.
    -- Stationary point found.

                         Standard orientation:
 ---------------------------------------------------------------------
 Center     Atomic      Atomic             Coordinates (Angstroms)
 Number     Number       Type             X           Y           Z
 ---------------------------------------------------------------------
      1          6           0       -1.716924   -0.186995    0.000041
      2          8           0       -2.240238   -1.345330   -0.000019
      3          6           0       -2.569613    1.067174   -0.000014
      4          1           0       -2.387408    1.699611    0.880942
      5          1           0       -2.387159    1.699712   -0.880844
      6          1           0       -3.621590    0.774437   -0.000176
      7          6           0       -0.268369   -0.040317    0.000021
      8          6           0        0.560590   -1.199296    0.000002
      9          6           0        0.428657    1.188368    0.000052
     10          6           0        1.991400   -1.130266   -0.000039
     11          1           0        0.070772   -2.166798    0.000029
     12          6           0        1.867350    1.252488    0.000007
     13          1           0       -0.114746    2.126749    0.000122
     14          6           0        2.663452    0.098725   -0.000032
     15          1           0        2.548666   -2.061454   -0.000077
     16          1           0        2.330300    2.234017    0.000003
     17          1           0        3.743824    0.157088   -0.000067
 ---------------------------------------------------------------------

 The electronic state is 1-A.
 Alpha  occ. eigenvalues --  -19.14175 -10.28606 -10.21069 -10.20768 -10.20698
 Alpha  occ. eigenvalues --  -10.20571 -10.20439 -10.20318 -10.19060  -1.01690
 Alpha  occ. eigenvalues --   -0.85582  -0.78042  -0.74350  -0.73107  -0.63557
 Alpha  occ. eigenvalues --   -0.60907  -0.55478  -0.51278  -0.46819  -0.45961
 Alpha  occ. eigenvalues --   -0.44985  -0.43865  -0.41602  -0.41219  -0.39088
 Alpha  occ. eigenvalues --   -0.37568  -0.36196  -0.34602  -0.34502  -0.26486
 Alpha  occ. eigenvalues --   -0.25787  -0.25241
 Alpha virt. eigenvalues --   -0.07007  -0.01665   0.03390   0.09398   0.11922
 Alpha virt. eigenvalues --    0.14700   0.14987   0.15199   0.16481   0.18317
 Alpha virt. eigenvalues --    0.18635   0.19586   0.22078   0.25729   0.27750

  Beta  occ. eigenvalues --  -19.14175 -10.28606 -10.21069 -10.20768 -10.20698
  Beta  occ. eigenvalues --  -10.20571 -10.20439 -10.20318 -10.19060  -1.01690
  Beta  occ. eigenvalues --   -0.85582  -0.78042  -0.74350  -0.73107  -0.63557
  Beta  occ. eigenvalues --   -0.60907  -0.55478  -0.51278  -0.46819  -0.45961
  Beta  occ. eigenvalues --   -0.44985  -0.43865  -0.41602  -0.41219  -0.39088
  Beta  occ. eigenvalues --   -0.37568  -0.36196  -0.34602  -0.34502  -0.26486
  Beta  occ. eigenvalues --   -0.25787  -0.25241
  Beta virt. eigenvalues --   -0.07007  -0.01665   0.03390   0.09398   0.11922
  Beta virt. eigenvalues --    0.14700   0.14987   0.15199   0.16481   0.18317
  Beta virt. eigenvalues --    0.18635   0.19586   0.22078   0.25729   0.27750

 Mulliken charges and spin densities:
               1          2
     1  C    0.389225   0.000001
     2  O   -0.527328  -0.000001
     3  C   -0.400924  -0.000000
     4  H    0.151558   0.000000
     5  H    0.151555   0.000000
     6  H    0.133189   0.000000
     7  C    0.075631  -0.000001
     8  C   -0.117133   0.000002
     9  C   -0.140053   0.000000
    10  C   -0.104034  -0.000001
    11  H    0.112279  -0.000000
    12  C   -0.107461  -0.000001
    13  H    0.112909   0.000000
    14  C   -0.075829   0.000001
    15  H    0.111682   0.000000
    16  H    0.111870   0.000000
    17  H    0.122863  -0.000000
 Sum of Mulliken charges =  -0.00000   0.00000

 Dipole moment (field-independent basis, Debye):
    X=              2.6837    Y=              3.4313    Z=              0.0001  Tot=              4.3562
 Quadrupole moment (field-independent basis, Debye-Ang):
   XX=            -49.3154   YY=            -49.7719   ZZ=            -54.2514
   XY=             -7.9968   XZ=             -0.0005   YZ=              0.0001

 Normal termination of Gaussian 16 at Fri May 10 12:40:23 2019.
