 Gaussian 16, Revision B.01,
 Gaussian 16:  ES64L-G16RevB.01 20-Dec-2017

 ----------------------------------------------------------------------
 #p opt td=(50-50,nstates=12,root=07) ub3lyp/6-31g(d,p) scrf=(iefpcm,so
 lvent=acetonitrile) guess=(core,mix,always) empiricaldispersion=gd3
 ----------------------------------------------------------------------

 -------------------
 Title Card Required
 -------------------
 Symbolic Z-matrix:
 Charge =  0 Multiplicity = 1

 SCF Done:  E(UB3LYP) =  -384.925582213     A.U. after   20 cycles
 Total Energy, E(TD-HF/TD-DFT) =  -384.739750781
 SCF Done:  E(UB3LYP) =  -384.918092590     A.U. after   22 cycles
 Total Energy, E(TD-HF/TD-DFT) =  -384.748547885
 SCF Done:  E(UB3LYP) =  -384.915826141     A.U. after   23 cycles
 Total Energy, E(TD-HF/TD-DFT) =  -384.751596811
 SCF Done:  E(UB3LYP) =  -384.887382721     A.U. after   24 cycles
 Total Energy, E(TD-HF/TD-DFT) =  -384.743524908
 SCF Done:  E(UB3LYP) =  -384.913022964     A.U. after   23 cycles
 Total Energy, E(TD-HF/TD-DFT) =  -384.753879358
 SCF Done:  E(UB3LYP) =  -384.915995933     A.U. after   22 cycles
 Total Energy, E(TD-HF/TD-DFT) =  -384.756759590
 SCF Done:  E(UB3LYP) =  -384.919135013     A.U. after   23 cycles
 Total Energy, E(TD-HF/TD-DFT) =  -384.759448929
 SCF Done:  E(UB3LYP) =  -384.883736773     A.U. after   25 cycles
 Total Energy, E(TD-HF/TD-DFT) =  -384.746319708
 SCF Done:  E(UB3LYP) =  -384.917265157     A.U. after   22 cycles
 Total Energy, E(TD-HF/TD-DFT) =  -384.760559417
 SCF Done:  E(UB3LYP) =  -384.915229009     A.U. after   23 cycles
 Total Energy, E(TD-HF/TD-DFT) =  -384.760726402
 SCF Done:  E(UB3LYP) =  -384.915879698     A.U. after   22 cycles
 Total Energy, E(TD-HF/TD-DFT) =  -384.760779978
 SCF Done:  E(UB3LYP) =  -384.916637162     A.U. after   22 cycles
 Total Energy, E(TD-HF/TD-DFT) =  -384.760899818
 SCF Done:  E(UB3LYP) =  -384.916528297     A.U. after   22 cycles
 Total Energy, E(TD-HF/TD-DFT) =  -384.760901399
 SCF Done:  E(UB3LYP) =  -384.916514674     A.U. after   22 cycles
 Total Energy, E(TD-HF/TD-DFT) =  -384.760905071
 SCF Done:  E(UB3LYP) =  -384.916529956     A.U. after   22 cycles

 Excitation energies and oscillator strengths:

 Excited State   1:  3.000-A      3.0354 eV  408.46 nm  f=0.0000  <S**2>=2.000
     31A -> 33A       -0.69062
     31A -> 35A        0.14738
     31B -> 33B        0.69062
     31B -> 35B       -0.14738

 Excited State   2:  3.000-A      3.0791 eV  402.66 nm  f=0.0000  <S**2>=2.000
     28A -> 33A       -0.10355
     30A -> 33A        0.56872
     32A -> 33A        0.24199
     32A -> 34A       -0.31718
     28B -> 33B        0.10355
     30B -> 33B       -0.56872
     32B -> 33B       -0.24199
     32B -> 34B        0.31718

 Excited State   3:  3.000-A      3.5215 eV  352.07 nm  f=0.0000  <S**2>=2.000
     30A -> 33A        0.23382
     32A -> 33A       -0.65179
     30B -> 33B       -0.23382
     32B -> 33B        0.65179

 Excited State   4:  1.000-A      3.5626 eV  348.01 nm  f=0.0001  <S**2>=0.000
     31A -> 33A        0.69793
     31A -> 35A       -0.10920
     31B -> 33B        0.69793
     31B -> 35B       -0.10920

 Excited State   5:  3.000-A      4.0441 eV  306.58 nm  f=0.0000  <S**2>=2.000
     28A -> 33A       -0.11795
     30A -> 33A        0.30584
     32A -> 34A        0.61220
     28B -> 33B        0.11795
     30B -> 33B       -0.30584
     32B -> 34B       -0.61220

 Excited State   6:  1.000-A      4.8737 eV  254.39 nm  f=0.4539  <S**2>=0.000
     30A -> 33A       -0.69158
     30B -> 33B       -0.69159

 Excited State   7:  1.000-A      4.2348 eV  292.78 nm  f=0.0503  <S**2>=0.000
     30A -> 34A        0.16619
     32A -> 33A        0.68268
     30B -> 34B        0.16619
     32B -> 33B        0.68268
 This state for optimization and/or second-order correction.
 Total Energy, E(TD-HF/TD-DFT) =  -384.760905407
 Copying the excited state density for this state as the 1-particle RhoCI density.

 Excited State   8:  3.000-A      4.9286 eV  251.56 nm  f=0.0000  <S**2>=2.000
     22A -> 33A       -0.13485
     26A -> 33A        0.12327
     28A -> 33A       -0.57344
     28A -> 35A        0.10410
     30A -> 33A       -0.13265
     30A -> 34A        0.16850
     30A -> 35A       -0.24262
     22B -> 33B        0.13485
     26B -> 33B       -0.12327
     28B -> 33B        0.57344
     28B -> 35B       -0.10410
     30B -> 33B        0.13264
     30B -> 34B       -0.16850
     30B -> 35B        0.24262

 Excited State   9:  3.000-A      5.0940 eV  243.39 nm  f=0.0000  <S**2>=2.000
     28A -> 33A       -0.13089
     30A -> 34A       -0.67015
     32A -> 34A       -0.11051
     28B -> 33B        0.13089
     30B -> 34B        0.67015
     32B -> 34B        0.11051

 Excited State  10:  3.000-A      5.6923 eV  217.81 nm  f=0.0000  <S**2>=2.000
     31A -> 34A        0.70208
     31B -> 34B       -0.70206

 Excited State  11:  1.000-A      5.7178 eV  216.84 nm  f=0.0000  <S**2>=0.000
     31A -> 34A        0.70594
     31B -> 34B        0.70596

 Excited State  12:  1.000-A      6.0515 eV  204.88 nm  f=0.1982  <S**2>=0.000
     30A -> 34A       -0.56869
     32A -> 33A        0.14422
     32A -> 34A       -0.27382
     32A -> 35A       -0.26324
     30B -> 34B       -0.56869
     32B -> 33B        0.14422
     32B -> 34B       -0.27383
     32B -> 35B       -0.26324

 Optimization completed.
    -- Stationary point found.

                         Standard orientation:
 ---------------------------------------------------------------------
 Center     Atomic      Atomic             Coordinates (Angstroms)
 Number     Number       Type             X           Y           Z
 ---------------------------------------------------------------------
      1          6           0       -1.716949   -0.186866   -0.000039
      2          8           0       -2.240246   -1.345336   -0.000007
      3          6           0       -2.569649    1.067110   -0.000035
      4          1           0       -2.387872    1.699441    0.881134
      5          1           0       -2.386921    1.700096   -0.880526
      6          1           0       -3.621599    0.774311   -0.000684
      7          6           0       -0.268161   -0.040317   -0.000030
      8          6           0        0.560546   -1.199417    0.000110
      9          6           0        0.428715    1.188438    0.000168
     10          6           0        1.991349   -1.130341   -0.000066
     11          1           0        0.070580   -2.166810    0.000445
     12          6           0        1.867366    1.252604   -0.000033
     13          1           0       -0.114834    2.126714    0.000558
     14          6           0        2.663361    0.098677   -0.000114
     15          1           0        2.548825   -2.061408   -0.000188
     16          1           0        2.330574    2.234004   -0.000143
     17          1           0        3.743741    0.157010   -0.000308
 ---------------------------------------------------------------------

 The electronic state is 1-A.
 Alpha  occ. eigenvalues --  -19.14174 -10.28608 -10.21068 -10.20769 -10.20697
 Alpha  occ. eigenvalues --  -10.20571 -10.20439 -10.20318 -10.19061  -1.01684
 Alpha  occ. eigenvalues --   -0.85582  -0.78040  -0.74351  -0.73109  -0.63554
 Alpha  occ. eigenvalues --   -0.60908  -0.55477  -0.51279  -0.46819  -0.45960
 Alpha  occ. eigenvalues --   -0.44985  -0.43864  -0.41605  -0.41219  -0.39089
 Alpha  occ. eigenvalues --   -0.37567  -0.36195  -0.34599  -0.34504  -0.26485
 Alpha  occ. eigenvalues --   -0.25787  -0.25242
 Alpha virt. eigenvalues --   -0.07006  -0.01666   0.03387   0.09398   0.11922
 Alpha virt. eigenvalues --    0.14700   0.14986   0.15199   0.16482   0.18315
 Alpha virt. eigenvalues --    0.18635   0.19586   0.22081   0.25729   0.27750

  Beta  occ. eigenvalues --  -19.14174 -10.28608 -10.21068 -10.20769 -10.20697
  Beta  occ. eigenvalues --  -10.20571 -10.20439 -10.20318 -10.19061  -1.01684
  Beta  occ. eigenvalues --   -0.85582  -0.78040  -0.74351  -0.73109  -0.63554
  Beta  occ. eigenvalues --   -0.60908  -0.55477  -0.51279  -0.46819  -0.45960
  Beta  occ. eigenvalues --   -0.44985  -0.43864  -0.41605  -0.41219  -0.39089
  Beta  occ. eigenvalues --   -0.37567  -0.36195  -0.34599  -0.34504  -0.26485
  Beta  occ. eigenvalues --   -0.25787  -0.25242
  Beta virt. eigenvalues --   -0.07006  -0.01666   0.03387   0.09398   0.11922
  Beta virt. eigenvalues --    0.14700   0.14986   0.15199   0.16482   0.18315
  Beta virt. eigenvalues --    0.18635   0.19586   0.22081   0.25729   0.27750

 Mulliken charges and spin densities:
               1          2
     1  C    0.389299   0.000001
     2  O   -0.527384  -0.000001
     3  C   -0.400928  -0.000000
     4  H    0.151594   0.000000
     5  H    0.151557   0.000000
     6  H    0.133217   0.000000
     7  C    0.075511  -0.000001
     8  C   -0.117094   0.000002
     9  C   -0.140015   0.000000
    10  C   -0.104044  -0.000001
    11  H    0.112298  -0.000000
    12  C   -0.107473  -0.000001
    13  H    0.112909   0.000000
    14  C   -0.075851   0.000001
    15  H    0.111679   0.000000
    16  H    0.111882   0.000000
    17  H    0.122844  -0.000000
 Sum of Mulliken charges =  -0.00000   0.00000

 Dipole moment (field-independent basis, Debye):
    X=              2.6828    Y=              3.4322    Z=              0.0003  Tot=              4.3563
 Quadrupole moment (field-independent basis, Debye-Ang):
   XX=            -49.3141   YY=            -49.7707   ZZ=            -54.2521
   XY=             -7.9987   XZ=             -0.0018   YZ=              0.0004

 Normal termination of Gaussian 16 at Fri May 10 13:00:22 2019.
