 Gaussian 16, Revision B.01,
 Gaussian 16:  ES64L-G16RevB.01 20-Dec-2017

 ----------------------------------------------------------------------
 #p opt td=(50-50,nstates=12,root=11) ub3lyp/6-31g(d,p) scrf=(iefpcm,so
 lvent=acetonitrile) guess=(core,mix,always) empiricaldispersion=gd3
 ----------------------------------------------------------------------

 -------------------
 Title Card Required
 -------------------
 Symbolic Z-matrix:
 Charge =  0 Multiplicity = 1

 SCF Done:  E(UB3LYP) =  -384.925582213     A.U. after   20 cycles
 Total Energy, E(TD-HF/TD-DFT) =  -384.712439585
 SCF Done:  E(UB3LYP) =  -384.917371005     A.U. after   23 cycles
 Total Energy, E(TD-HF/TD-DFT) =  -384.723802576
 SCF Done:  E(UB3LYP) =  -384.910571826     A.U. after   23 cycles
 Total Energy, E(TD-HF/TD-DFT) =  -384.725215354
 SCF Done:  E(UB3LYP) =  -384.909166569     A.U. after   23 cycles
 Total Energy, E(TD-HF/TD-DFT) =  -384.725370380
 SCF Done:  E(UB3LYP) =  -384.908764712     A.U. after   23 cycles
 Total Energy, E(TD-HF/TD-DFT) =  -384.725426963
 SCF Done:  E(UB3LYP) =  -384.908925661     A.U. after   23 cycles
 Total Energy, E(TD-HF/TD-DFT) =  -384.725437848
 SCF Done:  E(UB3LYP) =  -384.908995842     A.U. after   23 cycles

 Excitation energies and oscillator strengths:

 Excited State   1:  3.000-A      3.0466 eV  406.96 nm  f=0.0000  <S**2>=2.000
     32A -> 33A       -0.68679
     32A -> 35A        0.16254
     32B -> 33B        0.68679
     32B -> 35B       -0.16254

 Excited State   2:  3.000-A      3.2689 eV  379.28 nm  f=0.0000  <S**2>=2.000
     30A -> 33A        0.47857
     31A -> 33A        0.15677
     31A -> 34A        0.48478
     30B -> 33B       -0.47857
     31B -> 33B       -0.15677
     31B -> 34B       -0.48478
     31A <- 34A        0.10477
     31B <- 34B       -0.10477

 Excited State   3:  1.000-A      3.5325 eV  350.98 nm  f=0.0001  <S**2>=0.000
     32A -> 33A        0.69675
     32A -> 35A       -0.11617
     32B -> 33B        0.69675
     32B -> 35B       -0.11617

 Excited State   4:  3.000-A      3.8693 eV  320.43 nm  f=0.0000  <S**2>=2.000
     30A -> 33A        0.13131
     30A -> 34A       -0.14190
     31A -> 33A       -0.67068
     30B -> 33B       -0.13131
     30B -> 34B        0.14190
     31B -> 33B        0.67068

 Excited State   5:  3.000-A      4.1296 eV  300.23 nm  f=0.0000  <S**2>=2.000
     30A -> 33A        0.48423
     31A -> 34A       -0.50202
     30B -> 33B       -0.48423
     31B -> 34B        0.50202

 Excited State   6:  1.000-A      4.6283 eV  267.88 nm  f=0.0392  <S**2>=0.000
     30A -> 34A        0.26169
     31A -> 33A       -0.64981
     30B -> 34B        0.26169
     31B -> 33B       -0.64981

 Excited State   7:  3.000-A      4.8553 eV  255.36 nm  f=0.0000  <S**2>=2.000
     30A -> 34A        0.68407
     31A -> 33A       -0.12650
     30B -> 34B       -0.68407
     31B -> 33B        0.12650

 Excited State   8:  3.000-A      4.9749 eV  249.22 nm  f=0.0000  <S**2>=2.000
     32A -> 34A       -0.70521
     32B -> 34B        0.70520

 Excited State   9:  3.000-A      5.4308 eV  228.30 nm  f=0.0000  <S**2>=2.000
     22A -> 33A       -0.13708
     26A -> 33A        0.11449
     29A -> 33A       -0.58849
     29A -> 35A        0.12009
     30A -> 35A       -0.27977
     22B -> 33B        0.13708
     26B -> 33B       -0.11449
     29B -> 33B        0.58849
     29B -> 35B       -0.12009
     30B -> 35B        0.27977

 Excited State  10:  1.000-A      5.2321 eV  236.97 nm  f=0.3622  <S**2>=0.000
     30A -> 33A       -0.67838
     31A -> 33A       -0.10262
     31A -> 34A       -0.15266
     30B -> 33B       -0.67838
     31B -> 33B       -0.10262
     31B -> 34B       -0.15266

 Excited State  11:  1.000-A      4.9948 eV  248.22 nm  f=0.0000  <S**2>=0.000
     32A -> 34A       -0.70627
     32B -> 34B       -0.70628
 This state for optimization and/or second-order correction.
 Total Energy, E(TD-HF/TD-DFT) =  -384.725438680
 Copying the excited state density for this state as the 1-particle RhoCI density.

 Excited State  12:  1.000-A      6.0121 eV  206.22 nm  f=0.4834  <S**2>=0.000
     30A -> 33A       -0.15254
     30A -> 34A        0.41255
     31A -> 33A        0.18953
     31A -> 34A        0.49300
     31A -> 35A       -0.13632
     30B -> 33B       -0.15254
     30B -> 34B        0.41255
     31B -> 33B        0.18953
     31B -> 34B        0.49300
     31B -> 35B       -0.13632

 Optimization completed.
    -- Stationary point found.

                         Standard orientation:
 ---------------------------------------------------------------------
 Center     Atomic      Atomic             Coordinates (Angstroms)
 Number     Number       Type             X           Y           Z
 ---------------------------------------------------------------------
      1          6           0       -1.628219   -0.201404    0.000384
      2          8           0       -2.257185   -1.252799   -0.000085
      3          6           0       -2.585380    1.011981   -0.000147
      4          1           0       -2.345379    1.577515    0.900290
      5          1           0       -2.344764    1.577256   -0.900585
      6          1           0       -3.625011    0.693629   -0.000455
      7          6           0       -0.177522   -0.075305    0.000196
      8          6           0        0.570359   -1.269160    0.000018
      9          6           0        0.378148    1.214220    0.000174
     10          6           0        2.017462   -1.149536   -0.000170
     11          1           0        0.082887   -2.235382    0.000006
     12          6           0        1.829971    1.310866    0.000002
     13          1           0       -0.230148    2.108212    0.000302
     14          6           0        2.579344    0.131533   -0.000164
     15          1           0        2.639738   -2.036320   -0.000308
     16          1           0        2.308695    2.282485   -0.000015
     17          1           0        3.666471    0.215826   -0.000308
 ---------------------------------------------------------------------

 The electronic state is 1-A.
 Alpha  occ. eigenvalues --  -19.13166 -10.27271 -10.21349 -10.21097 -10.20776
 Alpha  occ. eigenvalues --  -10.20771 -10.20759 -10.20521 -10.18046  -1.03448
 Alpha  occ. eigenvalues --   -0.85851  -0.77679  -0.74889  -0.72146  -0.63038
 Alpha  occ. eigenvalues --   -0.61814  -0.55020  -0.50606  -0.46604  -0.46112
 Alpha  occ. eigenvalues --   -0.44676  -0.44366  -0.43067  -0.40482  -0.39249
 Alpha  occ. eigenvalues --   -0.37841  -0.36334  -0.35070  -0.34921  -0.26605
 Alpha  occ. eigenvalues --   -0.25590  -0.24076
 Alpha virt. eigenvalues --   -0.05676  -0.02626   0.04710   0.09347   0.12057
 Alpha virt. eigenvalues --    0.14792   0.15281   0.15543   0.16275   0.17736
 Alpha virt. eigenvalues --    0.18204   0.19356   0.21204   0.26017   0.27883

  Beta  occ. eigenvalues --  -19.13166 -10.27271 -10.21349 -10.21097 -10.20776
  Beta  occ. eigenvalues --  -10.20771 -10.20759 -10.20521 -10.18046  -1.03448
  Beta  occ. eigenvalues --   -0.85851  -0.77679  -0.74889  -0.72146  -0.63038
  Beta  occ. eigenvalues --   -0.61814  -0.55020  -0.50606  -0.46604  -0.46112
  Beta  occ. eigenvalues --   -0.44676  -0.44366  -0.43067  -0.40482  -0.39249
  Beta  occ. eigenvalues --   -0.37841  -0.36334  -0.35070  -0.34921  -0.26605
  Beta  occ. eigenvalues --   -0.25590  -0.24076
  Beta virt. eigenvalues --   -0.05676  -0.02626   0.04710   0.09347   0.12057
  Beta virt. eigenvalues --    0.14792   0.15281   0.15543   0.16275   0.17736
  Beta virt. eigenvalues --    0.18204   0.19356   0.21204   0.26017   0.27883

 Mulliken charges and spin densities:
               1          2
     1  C    0.372074   0.000000
     2  O   -0.511247  -0.000000
     3  C   -0.391255  -0.000000
     4  H    0.133323   0.000000
     5  H    0.133357   0.000000
     6  H    0.130967   0.000000
     7  C    0.067068  -0.000000
     8  C   -0.110447  -0.000000
     9  C   -0.129130   0.000000
    10  C   -0.105977   0.000000
    11  H    0.122735  -0.000000
    12  C   -0.108793  -0.000000
    13  H    0.126172   0.000000
    14  C   -0.078608   0.000000
    15  H    0.118792  -0.000000
    16  H    0.118712   0.000000
    17  H    0.112257  -0.000000
 Sum of Mulliken charges =  -0.00000   0.00000

 Dipole moment (field-independent basis, Debye):
    X=              3.1129    Y=              2.8534    Z=              0.0004  Tot=              4.2228
 Quadrupole moment (field-independent basis, Debye-Ang):
   XX=            -51.0580   YY=            -49.1820   ZZ=            -54.1535
   XY=             -6.7318   XZ=             -0.0019   YZ=             -0.0000

 Normal termination of Gaussian 16 at Fri May 10 12:45:48 2019.
