 Gaussian 16, Revision B.01,
 Gaussian 16:  ES64L-G16RevB.01 20-Dec-2017

 ----------------------------------------------------------------------
 #p opt freq ub3lyp/6-31g(d,p) scrf=(iefpcm,solvent=acetonitrile) empir
 icaldispersion=gd3
 ----------------------------------------------------------------------

 -------------------
 Title Card Required
 -------------------
 Symbolic Z-matrix:
 Charge =  0 Multiplicity = 2

 SCF Done:  E(UB3LYP) =  -770.410249163     A.U. after   17 cycles
 SCF Done:  E(UB3LYP) =  -770.424480037     A.U. after   14 cycles
 SCF Done:  E(UB3LYP) =  -770.426377437     A.U. after   14 cycles
 SCF Done:  E(UB3LYP) =  -770.424172869     A.U. after   16 cycles
 SCF Done:  E(UB3LYP) =  -770.426765092     A.U. after   13 cycles
 SCF Done:  E(UB3LYP) =  -770.426844611     A.U. after   13 cycles
 SCF Done:  E(UB3LYP) =  -770.427206362     A.U. after   13 cycles
 SCF Done:  E(UB3LYP) =  -770.427514854     A.U. after   14 cycles
 SCF Done:  E(UB3LYP) =  -770.427626754     A.U. after   13 cycles
 SCF Done:  E(UB3LYP) =  -770.427754193     A.U. after   13 cycles
 SCF Done:  E(UB3LYP) =  -770.430948909     A.U. after   12 cycles
 SCF Done:  E(UB3LYP) =  -770.430957343     A.U. after   10 cycles
 SCF Done:  E(UB3LYP) =  -770.430959828     A.U. after    9 cycles
 SCF Done:  E(UB3LYP) =  -770.430961386     A.U. after    9 cycles
 SCF Done:  E(UB3LYP) =  -770.430962626     A.U. after    8 cycles
 SCF Done:  E(UB3LYP) =  -770.430963301     A.U. after    8 cycles
 SCF Done:  E(UB3LYP) =  -770.430963602     A.U. after    7 cycles
 SCF Done:  E(UB3LYP) =  -770.430963854     A.U. after    7 cycles
 SCF Done:  E(UB3LYP) =  -770.430963896     A.U. after    6 cycles
 Optimization completed.
    -- Stationary point found.

 1\1\GINC-GRA716\FOpt\UB3LYP\6-31G(d,p)\C16H17O2(2)\RZK\14-May-2019\0\\
 #p opt freq ub3lyp/6-31g(d,p) scrf=(iefpcm,solvent=acetonitrile) empir
 icaldispersion=gd3\\Title Card Required\\0,2\C,-0.2853819724,-2.047980
 8841,0.9357423698\C,-1.9173556698,0.0305047772,-0.5925418719\O,-1.0734
 078663,-2.8565883047,0.436244267\C,-0.5357957484,-1.4914715301,2.31866
 94179\H,0.3326689836,-1.6487265265,2.9658440803\H,-0.7173506381,-0.413
 1090312,2.2650518664\H,-1.4116948341,-1.9793553542,2.7463206696\C,-1.6
 522349293,-0.6429246526,-1.8987449506\H,-0.734589579,-0.2936524105,-2.

 Normal termination of Gaussian 16 at Tue May 14 00:14:40 2019.

 ----------------------------------------------------------------------
 #P Geom=AllCheck Guess=TCheck SCRF=Check GenChk UB3LYP/6-31G(d,p) Freq
 ----------------------------------------------------------------------

 Structure from the checkpoint file:  "AH-A.chk"
 -------------------
 Title Card Required
 -------------------
 Charge =  0 Multiplicity = 2

                         Standard orientation:
 ---------------------------------------------------------------------
 Center     Atomic      Atomic             Coordinates (Angstroms)
 Number     Number       Type             X           Y           Z
 ---------------------------------------------------------------------
      1          6           0        1.369984   -1.431847    0.989478
      2          6           0       -0.789974   -1.313182   -1.164494
      3          8           0        1.792673   -2.393973    0.341422
      4          6           0        0.441903   -1.649211    2.162643
      5          1           0        0.834094   -1.169384    3.064722
      6          1           0       -0.539423   -1.210509    1.954694
      7          1           0        0.325008   -2.719701    2.331469
      8          6           0        0.224709   -1.163325   -2.249816
      9          1           0        0.489313   -0.122618   -2.434839
     10          1           0        1.144148   -1.691269   -1.969166
     11          1           0       -0.134709   -1.603378   -3.190241
     12          6           0        1.755993   -0.040183    0.621366
     13          6           0        2.772123    0.150076   -0.331074
     14          6           0        1.111066    1.081982    1.167201
     15          6           0        3.134145    1.432470   -0.731101
     16          1           0        3.264117   -0.723006   -0.745398
     17          6           0        1.467868    2.365877    0.758189
     18          1           0        0.312703    0.958602    1.890035
     19          6           0        2.479609    2.544007   -0.188626
     20          1           0        3.922549    1.569751   -1.464828
     21          1           0        0.952363    3.226116    1.173461
     22          1           0        2.757105    3.545220   -0.504468
     23          6           0       -1.649858   -0.305371   -0.657373
     24          6           0       -2.585606   -0.601925    0.380001
     25          6           0       -1.598288    1.041685   -1.121610
     26          6           0       -3.392423    0.389240    0.921180
     27          1           0       -2.656481   -1.620450    0.743397
     28          6           0       -2.412692    2.019828   -0.569817
     29          1           0       -0.907163    1.315891   -1.910427
     30          6           0       -3.316391    1.710105    0.457167
     31          1           0       -4.091321    0.133387    1.712992
     32          1           0       -2.343489    3.039003   -0.939986
     33          1           0       -3.948874    2.481653    0.884822
     34          8           0       -0.961789   -2.576506   -0.666471
     35          1           0       -0.100028   -3.026843   -0.655728
 ---------------------------------------------------------------------

 SCF Done:  E(UB3LYP) =  -770.430963896     A.U. after    1 cycles

 The electronic state is 2-A.
 Alpha  occ. eigenvalues --  -19.17721 -19.14281 -10.28213 -10.24958 -10.20178
 Alpha  occ. eigenvalues --  -10.20125 -10.20068 -10.19792 -10.19661 -10.19653
 Alpha  occ. eigenvalues --  -10.19520 -10.18824 -10.18668 -10.18621 -10.18539
 Alpha  occ. eigenvalues --  -10.18528 -10.18416 -10.18371  -1.05859  -1.03789
 Alpha  occ. eigenvalues --   -0.86178  -0.85111  -0.77982  -0.77370  -0.75256
 Alpha  occ. eigenvalues --   -0.74309  -0.72946  -0.72484  -0.64866  -0.63042
 Alpha  occ. eigenvalues --   -0.60821  -0.59897  -0.57309  -0.55280  -0.51858
 Alpha  occ. eigenvalues --   -0.51174  -0.49780  -0.46615  -0.46490  -0.46027
 Alpha  occ. eigenvalues --   -0.45871  -0.44546  -0.44159  -0.43000  -0.42697
 Alpha  occ. eigenvalues --   -0.42378  -0.41749  -0.41546  -0.38990  -0.38744
 Alpha  occ. eigenvalues --   -0.38220  -0.37527  -0.36801  -0.35853  -0.35533
 Alpha  occ. eigenvalues --   -0.34802  -0.34584  -0.33927  -0.32384  -0.27178
 Alpha  occ. eigenvalues --   -0.26088  -0.25897  -0.25567  -0.25136  -0.15317
 Alpha virt. eigenvalues --   -0.05974  -0.00891  -0.00062   0.02646   0.03588
 Alpha virt. eigenvalues --    0.08476   0.09831   0.11248   0.12345   0.13478
 Alpha virt. eigenvalues --    0.13605   0.15010   0.15187   0.15843   0.15962

  Beta  occ. eigenvalues --  -19.17458 -19.14258 -10.28195 -10.24044 -10.20181
  Beta  occ. eigenvalues --  -10.20118 -10.20045 -10.19775 -10.19714 -10.19670
  Beta  occ. eigenvalues --  -10.19661 -10.18801 -10.18764 -10.18534 -10.18477
  Beta  occ. eigenvalues --  -10.18371 -10.18253 -10.18219  -1.05166  -1.03701
  Beta  occ. eigenvalues --   -0.86157  -0.84780  -0.77470  -0.77062  -0.75238
  Beta  occ. eigenvalues --   -0.74025  -0.72910  -0.72170  -0.63959  -0.62992
  Beta  occ. eigenvalues --   -0.60809  -0.59714  -0.56989  -0.55260  -0.51612
  Beta  occ. eigenvalues --   -0.51143  -0.49044  -0.46575  -0.46232  -0.45771
  Beta  occ. eigenvalues --   -0.45284  -0.44533  -0.44084  -0.42730  -0.42616
  Beta  occ. eigenvalues --   -0.41966  -0.41662  -0.41303  -0.38964  -0.38406
  Beta  occ. eigenvalues --   -0.37685  -0.37225  -0.36277  -0.35799  -0.35318
  Beta  occ. eigenvalues --   -0.34591  -0.34452  -0.33429  -0.31845  -0.26415
  Beta  occ. eigenvalues --   -0.25969  -0.25632  -0.24923  -0.24482
  Beta virt. eigenvalues --   -0.07459  -0.04793  -0.00816   0.00548   0.03501
  Beta virt. eigenvalues --    0.05186   0.08660   0.09901   0.11360   0.12402
  Beta virt. eigenvalues --    0.13549   0.13804   0.15055   0.15500   0.15957

 Mulliken charges and spin densities:
               1          2
     1  C    0.395974   0.013914
     2  C    0.244234   0.595791
     3  O   -0.532405   0.009186
     4  C   -0.397861  -0.000739
     5  H    0.141008  -0.000154
     6  H    0.150881   0.002049
     7  H    0.128174   0.000032
     8  C   -0.377889  -0.050961
     9  H    0.130643   0.002598
    10  H    0.130117   0.020626
    11  H    0.132986   0.033928
    12  C    0.058398  -0.007474
    13  C   -0.110967   0.016227
    14  C   -0.112313   0.011338
    15  C   -0.101708  -0.007938
    16  H    0.111747  -0.000753
    17  C   -0.104218  -0.007873
    18  H    0.111440  -0.000511
    19  C   -0.088831   0.017699
    20  H    0.109168   0.000275
    21  H    0.109748   0.000278
    22  H    0.111094  -0.000801
    23  C    0.097507  -0.160515
    24  C   -0.143826   0.226226
    25  C   -0.137621   0.218611
    26  C   -0.102270  -0.119488
    27  H    0.102704  -0.009990
    28  C   -0.108728  -0.117649
    29  H    0.093318  -0.009575
    30  C   -0.112108   0.252967
    31  H    0.096236   0.004271
    32  H    0.096438   0.004179
    33  H    0.094109  -0.011740
    34  O   -0.554383   0.069161
    35  H    0.339206   0.006802
 Sum of Mulliken charges =  -0.00000   1.00000

 Dipole moment (field-independent basis, Debye):
    X=              1.1805    Y=              3.0014    Z=              0.3416  Tot=              3.2433
 Quadrupole moment (field-independent basis, Debye-Ang):
   XX=           -108.1812   YY=           -102.0371   ZZ=            -97.9634
   XY=              2.7888   XZ=             -7.4579   YZ=             -0.9958

  Exact polarizability: 244.972 -27.245 290.536 -68.053  -0.551 189.637
 Approx polarizability: 271.939 -40.282 368.519 -88.698   3.749 227.482

                      1                      2                      3
                      A                      A                      A
 Frequencies --     17.2210                35.6891                47.1884
 Red. masses --      4.9825                 4.4189                 4.8796
 Frc consts  --      0.0009                 0.0033                 0.0064
 IR Inten    --      0.9224                 1.2211                 0.1945

                      4                      5                      6
                      A                      A                      A
 Frequencies --     58.6673                65.2611               110.3454
 Red. masses --      3.8240                 4.4948                 1.8005
 Frc consts  --      0.0078                 0.0113                 0.0129
 IR Inten    --      0.0885                 3.3609                 1.7252

                      7                      8                      9
                      A                      A                      A
 Frequencies --    125.2537               130.9998               162.4480
 Red. masses --      2.7023                 4.0650                 3.5388
 Frc consts  --      0.0250                 0.0411                 0.0550
 IR Inten    --     13.1957                 2.1087                10.7951

                     10                     11                     12
                      A                      A                      A
 Frequencies --    166.2420               185.0894               202.2574
 Red. masses --      3.4060                 1.8901                 1.3561
 Frc consts  --      0.0555                 0.0382                 0.0327
 IR Inten    --     11.6007                 1.6404                 6.5244

                     13                     14                     15
                      A                      A                      A
 Frequencies --    233.1072               242.6916               367.9264
 Red. masses --      3.6031                 3.4769                 3.1273
 Frc consts  --      0.1154                 0.1207                 0.2494
 IR Inten    --      6.8144                10.4836                51.6372

                     16                     17                     18
                      A                      A                      A
 Frequencies --    372.3915               375.9315               405.3667
 Red. masses --      3.2552                 4.4261                 1.6434
 Frc consts  --      0.2660                 0.3685                 0.1591
 IR Inten    --     64.8889                10.4169               200.8181

                     19                     20                     21
                      A                      A                      A
 Frequencies --    415.0374               419.6242               433.2064
 Red. masses --      2.8128                 3.0523                 2.7079
 Frc consts  --      0.2855                 0.3167                 0.2994
 IR Inten    --      8.2673                 0.6358                74.0088

                     22                     23                     24
                      A                      A                      A
 Frequencies --    479.5318               481.3123               517.2985
 Red. masses --      3.9639                 4.1254                 3.2212
 Frc consts  --      0.5370                 0.5631                 0.5079
 IR Inten    --      5.5939                 6.0204                 2.0865

                     25                     26                     27
                      A                      A                      A
 Frequencies --    543.9440               600.1535               605.6599
 Red. masses --      3.6778                 4.3227                 2.5021
 Frc consts  --      0.6411                 0.9173                 0.5408
 IR Inten    --      8.1188                34.0024                27.5221

                     28                     29                     30
                      A                      A                      A
 Frequencies --    627.0805               629.7389               690.4415
 Red. masses --      6.4189                 6.4103                 1.8445
 Frc consts  --      1.4872                 1.4978                 0.5181
 IR Inten    --      0.0421                 1.3880                31.8890

                     31                     32                     33
                      A                      A                      A
 Frequencies --    702.1056               738.2894               748.1280
 Red. masses --      1.8926                 4.9110                 4.9991
 Frc consts  --      0.5497                 1.5772                 1.6485
 IR Inten    --     37.2863                 7.6536                 0.7131

                     34                     35                     36
                      A                      A                      A
 Frequencies --    755.2643               776.8517               830.2847
 Red. masses --      1.9235                 1.6885                 1.2657
 Frc consts  --      0.6465                 0.6004                 0.5141
 IR Inten    --     60.6652                35.6058                 0.3257

                     37                     38                     39
                      A                      A                      A
 Frequencies --    863.0573               887.5017               946.9263
 Red. masses --      1.2526                 1.4066                 1.3530
 Frc consts  --      0.5497                 0.6528                 0.7148
 IR Inten    --      0.5081                11.0087                 5.2081

                     40                     41                     42
                      A                      A                      A
 Frequencies --    968.1456               970.9467               972.7183
 Red. masses --      1.3281                 2.2083                 2.7404
 Frc consts  --      0.7334                 1.2266                 1.5277
 IR Inten    --      0.5864                21.1167                62.4422

                     43                     44                     45
                      A                      A                      A
 Frequencies --    988.7176               989.4395               991.9943
 Red. masses --      1.2561                 1.3742                 3.9040
 Frc consts  --      0.7235                 0.7926                 2.2635
 IR Inten    --      0.6608                 0.6290                 9.7343

                     46                     47                     48
                      A                      A                      A
 Frequencies --   1012.4238              1014.6418              1028.9538
 Red. masses --      1.2969                 5.7773                 1.4060
 Frc consts  --      0.7832                 3.5043                 0.8771
 IR Inten    --      0.8624                 0.8874                29.8392

                     49                     50                     51
                      A                      A                      A
 Frequencies --   1041.1902              1045.6886              1049.7880
 Red. masses --      2.3461                 1.8744                 2.5133
 Frc consts  --      1.4985                 1.2076                 1.6319
 IR Inten    --     25.7502                14.3279                 6.3485

                     52                     53                     54
                      A                      A                      A
 Frequencies --   1078.4653              1102.3806              1112.4123
 Red. masses --      1.7916                 2.1563                 1.6873
 Frc consts  --      1.2277                 1.5439                 1.2302
 IR Inten    --     32.5808                 3.1291                19.4466

                     55                     56                     57
                      A                      A                      A
 Frequencies --   1119.5468              1184.1347              1192.6372
 Red. masses --      1.5514                 1.1245                 1.1042
 Frc consts  --      1.1456                 0.9290                 0.9254
 IR Inten    --     11.1370                 1.4356                 1.5109

                     58                     59                     60
                      A                      A                      A
 Frequencies --   1206.7170              1213.2406              1253.2500
 Red. masses --      1.2049                 1.1472                 1.4682
 Frc consts  --      1.0337                 0.9949                 1.3587
 IR Inten    --     20.8050                18.5354               141.6363

                     61                     62                     63
                      A                      A                      A
 Frequencies --   1274.7869              1294.6215              1345.7400
 Red. masses --      3.5514                 3.4118                 2.0529
 Frc consts  --      3.4004                 3.3691                 2.1905
 IR Inten    --    112.2817               274.8119                 4.4842

                     64                     65                     66
                      A                      A                      A
 Frequencies --   1347.4412              1362.9804              1366.2393
 Red. masses --      2.9571                 1.7831                 2.8816
 Frc consts  --      3.1633                 1.9516                 3.1691
 IR Inten    --    131.2224                 1.8582                 7.1181

                     67                     68                     69
                      A                      A                      A
 Frequencies --   1397.0000              1422.4906              1445.0663
 Red. masses --      1.3477                 1.2901                 1.5183
 Frc consts  --      1.5496                 1.5380                 1.8681
 IR Inten    --     79.4121                10.8584                21.3952

                     70                     71                     72
                      A                      A                      A
 Frequencies --   1477.0859              1479.9429              1482.1785
 Red. masses --      1.0705                 1.1044                 2.2962
 Frc consts  --      1.3761                 1.4252                 2.9721
 IR Inten    --     13.2608                 7.7905                22.8562

                     73                     74                     75
                      A                      A                      A
 Frequencies --   1486.6552              1490.5604              1498.0732
 Red. masses --      2.0902                 1.1197                 1.4108
 Frc consts  --      2.7219                 1.4657                 1.8654
 IR Inten    --     29.6602                22.9354                10.8527

                     76                     77                     78
                      A                      A                      A
 Frequencies --   1533.1424              1542.4370              1585.8127
 Red. masses --      2.1497                 2.2215                 4.1650
 Frc consts  --      2.9771                 3.1139                 6.1712
 IR Inten    --      5.7294                14.5433                 1.6509

                     79                     80                     81
                      A                      A                      A
 Frequencies --   1618.9162              1627.8365              1649.8751
 Red. masses --      4.9190                 5.2996                 5.4256
 Frc consts  --      7.5958                 8.2741                 8.7016
 IR Inten    --     29.6374                28.7593                58.1362

                     82                     83                     84
                      A                      A                      A
 Frequencies --   1711.8849              3015.2127              3052.5043
 Red. masses --      9.2666                 1.0460                 1.0367
 Frc consts  --     16.0000                 5.6030                 5.6913
 IR Inten    --    294.2849                63.8974                15.7603

                     85                     86                     87
                      A                      A                      A
 Frequencies --   3072.9989              3121.2555              3158.8782
 Red. masses --      1.0956                 1.1000                 1.0956
 Frc consts  --      6.0956                 6.3137                 6.4412
 IR Inten    --     29.0385                 1.5561                13.7214

                     88                     89                     90
                      A                      A                      A
 Frequencies --   3166.9338              3176.5625              3182.4306
 Red. masses --      1.1035                 1.0858                 1.0894
 Frc consts  --      6.5211                 6.4552                 6.5006
 IR Inten    --     20.3664                 8.1055                25.5826

                     91                     92                     93
                      A                      A                      A
 Frequencies --   3186.0073              3196.0821              3202.3602
 Red. masses --      1.0861                 1.0896                 1.0933
 Frc consts  --      6.4956                 6.5576                 6.6059
 IR Inten    --      0.8821                15.9528                46.0823

                     94                     95                     96
                      A                      A                      A
 Frequencies --   3206.2396              3212.9696              3217.6703
 Red. masses --      1.0937                 1.0927                 1.0931
 Frc consts  --      6.6244                 6.6462                 6.6678
 IR Inten    --     30.2039                28.7941                21.6966

                     97                     98                     99
                      A                      A                      A
 Frequencies --   3219.8618              3220.6099              3710.8098
 Red. masses --      1.0927                 1.0954                 1.0660
 Frc consts  --      6.6748                 6.6939                 8.6486
 IR Inten    --      6.4914                 5.8129                86.8638

 - Thermochemistry -
 -------------------
 Temperature   298.150 Kelvin.  Pressure   1.00000 Atm.
 Atom     1 has atomic number  6 and mass  12.00000

 Molecular mass:   241.12285 amu.
 Principal axes and moments of inertia in atomic units:
                           1         2         3
     Eigenvalues --  3344.346354687.073246001.07020
           X            0.99974  -0.00074  -0.02279
           Y            0.00051   0.99995  -0.00986
           Z            0.02280   0.00985   0.99969
 This molecule is an asymmetric top.
 Rotational symmetry number  1.
 Warning -- assumption of classical behavior for rotation
           may cause significant error
 Rotational temperatures (Kelvin)      0.02590     0.01848     0.01443
 Rotational constants (GHZ):           0.53964     0.38505     0.30074
 Zero-point vibrational energy     755400.5 (Joules/Mol)
                                  180.54505 (Kcal/Mol)
 Warning -- explicit consideration of  27 degrees of freedom as
           vibrations may cause significant error
 Vibrational temperatures:     24.78    51.35    67.89    84.41    93.90
          (Kelvin)            158.76   180.21   188.48   233.73   239.19
                              266.30   291.00   335.39   349.18   529.36
                              535.79   540.88   583.23   597.15   603.75
                              623.29   689.94   692.50   744.28   782.61
                              863.49   871.41   902.23   906.05   993.39
                             1010.17  1062.23  1076.39  1086.66  1117.72
                             1194.59  1241.75  1276.92  1362.42  1392.95
                             1396.98  1399.52  1422.54  1423.58  1427.26
                             1456.65  1459.84  1480.44  1498.04  1504.51
                             1510.41  1551.67  1586.08  1600.51  1610.78
                             1703.71  1715.94  1736.20  1745.58  1803.15
                             1834.13  1862.67  1936.22  1938.67  1961.02
                             1965.71  2009.97  2046.65  2079.13  2125.20
                             2129.31  2132.52  2138.97  2144.58  2155.39
                             2205.85  2219.22  2281.63  2329.26  2342.09
                             2373.80  2463.02  4338.22  4391.87  4421.36
                             4490.79  4544.92  4556.51  4570.36  4578.81
                             4583.95  4598.45  4607.48  4613.06  4622.75
                             4629.51  4632.66  4633.74  5339.03

 Zero-point correction=                           0.287717 (Hartree/Particle)
 Thermal correction to Energy=                    0.305498
 Thermal correction to Enthalpy=                  0.306442
 Thermal correction to Gibbs Free Energy=         0.239833
 Sum of electronic and zero-point Energies=           -770.143247
 Sum of electronic and thermal Energies=              -770.125466
 Sum of electronic and thermal Enthalpies=            -770.124522
 Sum of electronic and thermal Free Energies=         -770.191131

                     E (Thermal)             CV                S
                      KCal/Mol        Cal/Mol-Kelvin    Cal/Mol-Kelvin
 Total                  191.703             67.133            140.192
 Electronic               0.000              0.000              1.377
 Translational            0.889              2.981             42.342
 Rotational               0.889              2.981             32.909
 Vibrational            189.926             61.171             63.564
 Vibration     1          0.593              1.986              6.931
 Vibration     2          0.594              1.982              5.485
 Vibration     3          0.595              1.979              4.932
 Vibration     4          0.596              1.974              4.502
 Vibration     5          0.597              1.971              4.291
 Vibration     6          0.606              1.941              3.263
 Vibration     7          0.610              1.928              3.018
 Vibration     8          0.612              1.922              2.931
 Vibration     9          0.623              1.888              2.521
 Vibration    10          0.624              1.884              2.478
 Vibration    11          0.631              1.860              2.276
 Vibration    12          0.639              1.837              2.112
 Vibration    13          0.654              1.790              1.855
 Vibration    14          0.659              1.775              1.783
 Vibration    15          0.741              1.538              1.088
 Vibration    16          0.744              1.529              1.070
 Vibration    17          0.747              1.521              1.055
 Vibration    18          0.770              1.459              0.943
 Vibration    19          0.778              1.438              0.909
 Vibration    20          0.782              1.428              0.893
 Vibration    21          0.794              1.398              0.848
 Vibration    22          0.836              1.295              0.711
 Vibration    23          0.838              1.291              0.707
 Vibration    24          0.872              1.212              0.616
 Vibration    25          0.899              1.153              0.557
 Vibration    26          0.958              1.031              0.449
 Vibration    27          0.964              1.020              0.440

                           ! Non-Optimized Parameters !

 1\1\GINC-GRA716\Freq\UB3LYP\6-31G(d,p)\C16H17O2(2)\RZK\14-May-2019\0\\
 #P Geom=AllCheck Guess=TCheck SCRF=Check GenChk UB3LYP/6-31G(d,p) Freq
 \\Title Card Required\\0,2\C,-0.2853819724,-2.0479808841,0.9357423698\
 C,-1.9173556698,0.0305047772,-0.5925418719\O,-1.0734078663,-2.85658830
 47,0.436244267\C,-0.5357957484,-1.4914715301,2.3186694179\H,0.33266898
 36,-1.6487265265,2.9658440803\H,-0.7173506381,-0.4131090312,2.26505186
 64\H,-1.4116948341,-1.9793553542,2.7463206696\C,-1.6522349293,-0.64292
 46526,-1.8987449506\H,-0.734589579,-0.2936524105,-2.3712435298\H,-1.55

 Normal termination of Gaussian 16 at Tue May 14 00:27:36 2019.
