 Gaussian 16, Revision B.01,
 Gaussian 16:  ES64L-G16RevB.01 20-Dec-2017

 ----------------------------------------------------------------------
 #p opt freq rb3lyp/6-31g(d,p) scrf=(iefpcm,solvent=acetonitrile) empir
 icaldispersion=gd3
 ----------------------------------------------------------------------

 -------------------
 Title Card Required
 -------------------
 Symbolic Z-matrix:
 Charge =  0 Multiplicity = 1

 SCF Done:  E(RB3LYP) =  -496.661241365     A.U. after   20 cycles
 SCF Done:  E(RB3LYP) =  -496.681959858     A.U. after   13 cycles
 SCF Done:  E(RB3LYP) =  -496.693205471     A.U. after   13 cycles
 SCF Done:  E(RB3LYP) =  -496.706835931     A.U. after   14 cycles
 SCF Done:  E(RB3LYP) =  -496.701413077     A.U. after   14 cycles
 SCF Done:  E(RB3LYP) =  -496.715851605     A.U. after   12 cycles
 SCF Done:  E(RB3LYP) =  -496.714518209     A.U. after   12 cycles
 SCF Done:  E(RB3LYP) =  -496.726709819     A.U. after   12 cycles
 SCF Done:  E(RB3LYP) =  -496.733762858     A.U. after   12 cycles
 SCF Done:  E(RB3LYP) =  -496.744920539     A.U. after   12 cycles
 SCF Done:  E(RB3LYP) =  -496.812065660     A.U. after    9 cycles
 SCF Done:  E(RB3LYP) =  -496.812066479     A.U. after    9 cycles
 SCF Done:  E(RB3LYP) =  -496.812067510     A.U. after    8 cycles
 SCF Done:  E(RB3LYP) =  -496.812068078     A.U. after    8 cycles
 SCF Done:  E(RB3LYP) =  -496.812068418     A.U. after    8 cycles
 SCF Done:  E(RB3LYP) =  -496.812068793     A.U. after    8 cycles
 SCF Done:  E(RB3LYP) =  -496.812069349     A.U. after    8 cycles
 SCF Done:  E(RB3LYP) =  -496.812069716     A.U. after    8 cycles
 SCF Done:  E(RB3LYP) =  -496.812069872     A.U. after    7 cycles
 Optimization completed.
    -- Stationary point found.
 Normal termination of Gaussian 16 at Fri May 17 16:23:22 2019.

 ----------------------------------------------------------------------
 #P Geom=AllCheck Guess=TCheck SCRF=Check GenChk RB3LYP/6-31G(d,p) Freq
 ----------------------------------------------------------------------

 Structure from the checkpoint file:  "AH-BnoH-opt.chk"
 -------------------
 Title Card Required
 -------------------
 Charge =  0 Multiplicity = 1

                         Standard orientation:
 ---------------------------------------------------------------------
 Center     Atomic      Atomic             Coordinates (Angstroms)
 Number     Number       Type             X           Y           Z
 ---------------------------------------------------------------------
      1          6           0        0.951556    0.942495    0.649318
      2          8           0        1.606666    0.392265    1.532689
      3          6           0        1.509673    2.139867   -0.088373
      4          1           0        1.595909    1.907249   -1.153104
      5          1           0        0.853156    3.009590    0.017799
      6          1           0        2.496231    2.375301    0.311977
      7          6           0       -0.420121    0.454056    0.305887
      8          6           0       -0.961027   -0.605342    1.051903
      9          6           0       -1.181389    1.017989   -0.729529
     10          6           0       -2.231895   -1.095974    0.766452
     11          1           0       -0.368417   -1.029299    1.855140
     12          6           0       -2.454509    0.525774   -1.016832
     13          1           0       -0.784498    1.836544   -1.319791
     14          6           0       -2.981474   -0.531330   -0.270794
     15          1           0       -2.640719   -1.915745    1.349397
     16          1           0       -3.034306    0.966061   -1.822219
     17          1           0       -3.972956   -0.913231   -0.495360
     18          1           0        1.849435   -1.577670    0.526336
     19          7           0        2.183710   -0.922491   -1.307428
     20          1           0        3.123534   -0.524696   -1.284767
     21          1           0        2.057616   -1.310746   -2.238608
     22          7           0        2.051214   -2.012960   -0.372441
     23          1           0        2.942319   -2.498529   -0.257428
 ---------------------------------------------------------------------

 SCF Done:  E(RB3LYP) =  -496.812069872     A.U. after    1 cycles

 The electronic state is 1-A.
 Alpha  occ. eigenvalues --  -19.13837 -14.33663 -14.33055 -10.27961 -10.20018
 Alpha  occ. eigenvalues --  -10.19963 -10.19955 -10.19621 -10.19618 -10.19551
 Alpha  occ. eigenvalues --  -10.18223  -1.03599  -0.93599  -0.86009  -0.77132
 Alpha  occ. eigenvalues --   -0.75114  -0.73979  -0.72667  -0.62778  -0.60685
 Alpha  occ. eigenvalues --   -0.55070  -0.51025  -0.48743  -0.48438  -0.46358
 Alpha  occ. eigenvalues --   -0.45857  -0.44500  -0.44014  -0.43014  -0.42428
 Alpha  occ. eigenvalues --   -0.41436  -0.38735  -0.37557  -0.35719  -0.35121
 Alpha  occ. eigenvalues --   -0.34478  -0.26259  -0.25838  -0.25431  -0.24568
 Alpha  occ. eigenvalues --   -0.24251
 Alpha virt. eigenvalues --   -0.05489  -0.00760   0.04031   0.08326   0.09766
 Alpha virt. eigenvalues --    0.11090   0.13237   0.14785   0.15290   0.16226
 Alpha virt. eigenvalues --    0.16625   0.17513   0.18374   0.18700   0.20093

 Mulliken charges:
               1
     1  C    0.438607
     2  O   -0.527518
     3  C   -0.398358
     4  H    0.150998
     5  H    0.137907
     6  H    0.125149
     7  C    0.069024
     8  C   -0.115521
     9  C   -0.129956
    10  C   -0.101600
    11  H    0.108539
    12  C   -0.105475
    13  H    0.109340
    14  C   -0.088170
    15  H    0.108216
    16  H    0.109040
    17  H    0.110249
    18  H    0.271617
    19  N   -0.514275
    20  H    0.257755
    21  H    0.266812
    22  N   -0.534368
    23  H    0.251987
 Sum of Mulliken charges =  -0.00000

 Dipole moment (field-independent basis, Debye):
    X=              0.0858    Y=              1.1162    Z=             -2.6608  Tot=              2.8867
 Quadrupole moment (field-independent basis, Debye-Ang):
   XX=            -51.4389   YY=            -62.1735   ZZ=            -64.2648
   XY=             -0.9319   XZ=             -5.1767   YZ=             -3.9851

  Exact polarizability: 154.333  22.614 114.863  22.763 -31.446 111.926
 Approx polarizability: 180.566  23.881 136.174  34.892 -42.184 143.430

                      1                      2                      3
                      A                      A                      A
 Frequencies --     40.3446                48.7032                78.1311
 Red. masses --      3.5215                 4.2290                 2.2940
 Frc consts  --      0.0034                 0.0059                 0.0083
 IR Inten    --      3.2800                 9.4328                18.9039

                      4                      5                      6
                      A                      A                      A
 Frequencies --     95.2032               110.1148               124.9901
 Red. masses --      3.8559                 4.5084                 1.9753
 Frc consts  --      0.0206                 0.0322                 0.0182
 IR Inten    --     12.4836                17.5126                28.8424

                      7                      8                      9
                      A                      A                      A
 Frequencies --    169.1229               183.7297               196.3738
 Red. masses --      4.2297                 1.2881                 1.4731
 Frc consts  --      0.0713                 0.0256                 0.0335
 IR Inten    --      2.9487                 9.9329                25.4052

                     10                     11                     12
                      A                      A                      A
 Frequencies --    235.4006               376.3089               413.2034
 Red. masses --      3.9498                 4.6660                 2.5809
 Frc consts  --      0.1290                 0.3893                 0.2596
 IR Inten    --      6.8584                 1.2004                 3.0216

                     13                     14                     15
                      A                      A                      A
 Frequencies --    429.9293               439.1354               472.7732
 Red. masses --      2.1108                 1.3798                 4.4620
 Frc consts  --      0.2299                 0.1568                 0.5876
 IR Inten    --      9.4343                34.7190                 1.6011

                     16                     17                     18
                      A                      A                      A
 Frequencies --    596.9127               601.9607               630.4167
 Red. masses --      3.4721                 2.9081                 6.4220
 Frc consts  --      0.7289                 0.6209                 1.5037
 IR Inten    --     41.1345                25.2876                 1.4087

                     19                     20                     21
                      A                      A                      A
 Frequencies --    705.5715               745.6598               778.1897
 Red. masses --      1.9313                 5.0156                 1.6584
 Frc consts  --      0.5665                 1.6431                 0.5917
 IR Inten    --     33.3806                 1.4154                39.9508

                     22                     23                     24
                      A                      A                      A
 Frequencies --    865.6881               868.0038               950.7896
 Red. masses --      1.6852                 1.5472                 1.3443
 Frc consts  --      0.7441                 0.6868                 0.7160
 IR Inten    --     37.5404                25.7042                 3.8441

                     25                     26                     27
                      A                      A                      A
 Frequencies --    969.7995               992.6112              1014.1216
 Red. masses --      2.1692                 1.3576                 1.2981
 Frc consts  --      1.2020                 0.7881                 0.7865
 IR Inten    --     43.1165                 0.2169                 0.4582

                     28                     29                     30
                      A                      A                      A
 Frequencies --   1015.0809              1044.3940              1050.5651
 Red. masses --      5.8172                 1.8542                 2.5385
 Frc consts  --      3.5316                 1.1916                 1.6507
 IR Inten    --      0.7867                 6.2115                 8.5569

                     31                     32                     33
                      A                      A                      A
 Frequencies --   1059.5634              1102.6784              1118.9976
 Red. masses --      1.2196                 2.1277                 1.5531
 Frc consts  --      0.8067                 1.5242                 1.1458
 IR Inten    --    171.6699                 2.1830                10.7412

                     34                     35                     36
                      A                      A                      A
 Frequencies --   1135.6346              1192.6998              1213.4956
 Red. masses --      1.5745                 1.1040                 1.1454
 Frc consts  --      1.1964                 0.9253                 0.9937
 IR Inten    --     26.2364                 1.4923                23.9692

                     37                     38                     39
                      A                      A                      A
 Frequencies --   1288.7921              1311.0833              1345.7136
 Red. masses --      3.2298                 1.1997                 1.8786
 Frc consts  --      3.1607                 1.2151                 2.0044
 IR Inten    --    277.0277                16.5015                 6.9213

                     40                     41                     42
                      A                      A                      A
 Frequencies --   1365.2947              1368.4853              1389.0629
 Red. masses --      2.7356                 1.2218                 1.3700
 Frc consts  --      3.0044                 1.3482                 1.5574
 IR Inten    --      5.6183                 7.0136                89.3371

                     43                     44                     45
                      A                      A                      A
 Frequencies --   1475.6099              1485.9654              1487.5913
 Red. masses --      1.0683                 1.1128                 2.0035
 Frc consts  --      1.3705                 1.4477                 2.6123
 IR Inten    --     17.1021                12.2729                26.5141

                     46                     47                     48
                      A                      A                      A
 Frequencies --   1535.3612              1632.1263              1653.0473
 Red. masses --      2.1663                 5.4171                 5.4278
 Frc consts  --      3.0088                 8.5021                 8.7386
 IR Inten    --      2.0949                23.5956                46.6703

                     49                     50                     51
                      A                      A                      A
 Frequencies --   1672.3561              1694.7246              1740.6868
 Red. masses --      1.0811                 1.1039                 7.1580
 Frc consts  --      1.7815                 1.8681                12.7786
 IR Inten    --     16.5342               104.3908               260.8330

                     52                     53                     54
                      A                      A                      A
 Frequencies --   3056.1929              3130.5745              3164.3549
 Red. masses --      1.0369                 1.0994                 1.1044
 Frc consts  --      5.7063                 6.3480                 6.5153
 IR Inten    --      2.6815                10.9525                23.0319

                     55                     56                     57
                      A                      A                      A
 Frequencies --   3184.4899              3194.2149              3204.4794
 Red. masses --      1.0860                 1.0895                 1.0935
 Frc consts  --      6.4890                 6.5493                 6.6157
 IR Inten    --      0.2153                15.0306                32.1950

                     58                     59                     60
                      A                      A                      A
 Frequencies --   3215.4126              3218.0839              3431.4609
 Red. masses --      1.0930                 1.0957                 1.0530
 Frc consts  --      6.6578                 6.6854                 7.3051
 IR Inten    --     27.7089                 5.4037                33.5089

                     61                     62                     63
                      A                      A                      A
 Frequencies --   3444.5810              3529.9014              3553.0937
 Red. masses --      1.0514                 1.0916                 1.0903
 Frc consts  --      7.3502                 8.0140                 8.1096
 IR Inten    --      4.3506                 9.9546                 1.2959

 - Thermochemistry -
 -------------------
 Temperature   298.150 Kelvin.  Pressure   1.00000 Atm.
 Atom     1 has atomic number  6 and mass  12.00000

 Molecular mass:   152.09496 amu.
 Principal axes and moments of inertia in atomic units:
                           1         2         3
     Eigenvalues --  1232.250032395.915922712.19158
           X            0.99991   0.00392  -0.01284
           Y           -0.00481   0.99753  -0.07011
           Z            0.01254   0.07017   0.99746
 This molecule is an asymmetric top.
 Rotational symmetry number  1.
 Warning -- assumption of classical behavior for rotation
           may cause significant error
 Rotational temperatures (Kelvin)      0.07029     0.03615     0.03194
 Rotational constants (GHZ):           1.46459     0.75326     0.66542
 Zero-point vibrational energy     507450.1 (Joules/Mol)
                                  121.28350 (Kcal/Mol)
 Warning -- explicit consideration of  17 degrees of freedom as
           vibrations may cause significant error
 Vibrational temperatures:     58.05    70.07   112.41   136.98   158.43
          (Kelvin)            179.83   243.33   264.35   282.54   338.69
                              541.42   594.51   618.57   631.82   680.22
                              858.82   866.09   907.03  1015.16  1072.84
                             1119.64  1245.53  1248.86  1367.97  1395.33
                             1428.15  1459.09  1460.47  1502.65  1511.53
                             1524.48  1586.51  1609.99  1633.92  1716.03
                             1745.95  1854.28  1886.36  1936.18  1964.35
                             1968.95  1998.55  2123.07  2137.97  2140.31
                             2209.04  2348.27  2378.37  2406.15  2438.33
                             2504.46  4397.18  4504.20  4552.80  4581.77
                             4595.76  4610.53  4626.26  4630.11  4937.11
                             4955.98  5078.74  5112.11

 Zero-point correction=                           0.193278 (Hartree/Particle)
 Thermal correction to Energy=                    0.205781
 Thermal correction to Enthalpy=                  0.206725
 Thermal correction to Gibbs Free Energy=         0.153494
 Sum of electronic and zero-point Energies=           -496.618792
 Sum of electronic and thermal Energies=              -496.606289
 Sum of electronic and thermal Enthalpies=            -496.605345
 Sum of electronic and thermal Free Energies=         -496.658576

                     E (Thermal)             CV                S
                      KCal/Mol        Cal/Mol-Kelvin    Cal/Mol-Kelvin
 Total                  129.129             43.921            112.033
 Electronic               0.000              0.000              0.000
 Translational            0.889              2.981             40.968
 Rotational               0.889              2.981             30.461
 Vibrational            127.352             37.960             40.605
 Vibration     1          0.594              1.981              5.242
 Vibration     2          0.595              1.978              4.869
 Vibration     3          0.599              1.964              3.937
 Vibration     4          0.603              1.953              3.550
 Vibration     5          0.606              1.941              3.267
 Vibration     6          0.610              1.928              3.022
 Vibration     7          0.625              1.880              2.445
 Vibration     8          0.631              1.862              2.290
 Vibration     9          0.636              1.845              2.167
 Vibration    10          0.655              1.787              1.837
 Vibration    11          0.747              1.521              1.054
 Vibration    12          0.777              1.442              0.915
 Vibration    13          0.791              1.405              0.859
 Vibration    14          0.799              1.385              0.829
 Vibration    15          0.830              1.310              0.730
 Vibration    16          0.955              1.038              0.455
 Vibration    17          0.960              1.028              0.446

                           ! Non-Optimized Parameters !
 Normal termination of Gaussian 16 at Fri May 17 16:24:39 2019.
