 Gaussian 16, Revision B.01,
 Gaussian 16:  ES64L-G16RevB.01 20-Dec-2017

 ----------------------------------------------------------------------
 #p opt td=(50-50,nstates=12,root=12) ub3lyp/6-31g(d,p) scrf=(iefpcm,so
 lvent=acetonitrile) guess=(core,mix,always) empiricaldispersion=gd3
 ----------------------------------------------------------------------

 -------------------
 Title Card Required
 -------------------
 Symbolic Z-matrix:
 Charge =  0 Multiplicity = 1

 SCF Done:  E(UB3LYP) =  -384.925582213     A.U. after   20 cycles
 Total Energy, E(TD-HF/TD-DFT) =  -384.696911718
 SCF Done:  E(UB3LYP) =  -384.920142316     A.U. after   23 cycles
 Total Energy, E(TD-HF/TD-DFT) =  -384.702411451
 SCF Done:  E(UB3LYP) =  -384.920034679     A.U. after   23 cycles
 Total Energy, E(TD-HF/TD-DFT) =  -384.702524364
 SCF Done:  E(UB3LYP) =  -384.919951525     A.U. after   23 cycles
 Total Energy, E(TD-HF/TD-DFT) =  -384.702536230
 SCF Done:  E(UB3LYP) =  -384.919958131     A.U. after   23 cycles

 Excitation energies and oscillator strengths:

 Excited State   1:  3.000-A      3.1514 eV  393.42 nm  f=0.0000  <S**2>=2.000
     30A -> 33A       -0.46778
     30A -> 34A       -0.17897
     30A -> 35A       -0.10987
     32A -> 33A       -0.38409
     32A -> 34A        0.28826
     30B -> 33B        0.46778
     30B -> 34B        0.17897
     30B -> 35B        0.10987
     32B -> 33B        0.38409
     32B -> 34B       -0.28826

 Excited State   2:  3.000-A      3.2331 eV  383.48 nm  f=0.0000  <S**2>=2.000
     31A -> 33A       -0.68580
     31A -> 35A        0.16350
     31B -> 33B        0.68580
     31B -> 35B       -0.16350

 Excited State   3:  1.000-A      3.7527 eV  330.38 nm  f=0.0000  <S**2>=0.000
     31A -> 33A        0.69475
     31A -> 35A       -0.12182
     31B -> 33B        0.69475
     31B -> 35B       -0.12182

 Excited State   4:  3.000-A      3.8269 eV  323.98 nm  f=0.0000  <S**2>=2.000
     30A -> 33A       -0.40880
     30A -> 34A       -0.13289
     32A -> 33A        0.54968
     30B -> 33B        0.40880
     30B -> 34B        0.13289
     32B -> 33B       -0.54968

 Excited State   5:  3.000-A      4.1476 eV  298.93 nm  f=0.0000  <S**2>=2.000
     30A -> 33A       -0.29833
     30A -> 34A        0.29511
     32A -> 33A       -0.16358
     32A -> 34A       -0.53316
     30B -> 33B        0.29833
     30B -> 34B       -0.29511
     32B -> 33B        0.16358
     32B -> 34B        0.53316

 Excited State   6:  1.000-A      4.5225 eV  274.15 nm  f=0.0385  <S**2>=0.000
     30A -> 33A       -0.31860
     30A -> 34A        0.19755
     32A -> 33A        0.58388
     32A -> 34A        0.13157
     30B -> 33B       -0.31860
     30B -> 34B        0.19755
     32B -> 33B        0.58388
     32B -> 34B        0.13157

 Excited State   7:  3.000-A      4.8444 eV  255.93 nm  f=0.0000  <S**2>=2.000
     30A -> 34A        0.59871
     32A -> 34A        0.34284
     30B -> 34B       -0.59871
     32B -> 34B       -0.34284

 Excited State   8:  1.000-A      4.8954 eV  253.27 nm  f=0.3989  <S**2>=0.000
     30A -> 33A        0.60351
     32A -> 33A        0.34618
     30B -> 33B        0.60351
     32B -> 33B        0.34618

 Excited State   9:  3.000-A      5.1368 eV  241.36 nm  f=0.0000  <S**2>=2.000
     22A -> 33A       -0.13793
     26A -> 33A        0.15685
     26A -> 35A       -0.10119
     29A -> 33A       -0.55574
     29A -> 35A        0.12247
     30A -> 35A        0.24732
     32A -> 34A        0.10629
     32A -> 35A        0.20879
     22B -> 33B        0.13793
     26B -> 33B       -0.15685
     26B -> 35B        0.10119
     29B -> 33B        0.55574
     29B -> 35B       -0.12247
     30B -> 35B       -0.24732
     32B -> 34B       -0.10629
     32B -> 35B       -0.20879

 Excited State  10:  3.000-A      5.5442 eV  223.63 nm  f=0.0000  <S**2>=2.000
     31A -> 34A        0.70337
     31B -> 34B       -0.70336

 Excited State  11:  1.000-A      5.5720 eV  222.51 nm  f=0.0000  <S**2>=0.000
     31A -> 34A        0.70499
     31B -> 34B        0.70500

 Excited State  12:  1.000-A      5.9163 eV  209.56 nm  f=0.2295  <S**2>=0.000
     30A -> 33A        0.15334
     30A -> 34A        0.48644
     30A -> 35A       -0.14018
     32A -> 33A       -0.17187
     32A -> 34A        0.38572
     32A -> 35A        0.19991
     30B -> 33B        0.15334
     30B -> 34B        0.48644
     30B -> 35B       -0.14018
     32B -> 33B       -0.17187
     32B -> 34B        0.38572
     32B -> 35B        0.19991
 This state for optimization and/or second-order correction.
 Total Energy, E(TD-HF/TD-DFT) =  -384.702536923
 Copying the excited state density for this state as the 1-particle RhoCI density.

 Optimization completed.
    -- Stationary point found.

                         Standard orientation:
 ---------------------------------------------------------------------
 Center     Atomic      Atomic             Coordinates (Angstroms)
 Number     Number       Type             X           Y           Z
 ---------------------------------------------------------------------
      1          6           0       -1.710363   -0.192088    0.000196
      2          8           0       -2.207229   -1.335295   -0.000095
      3          6           0       -2.565800    1.047551   -0.000033
      4          1           0       -2.366103    1.673446    0.880346
      5          1           0       -2.365676    1.673451   -0.880308
      6          1           0       -3.616637    0.755298   -0.000283
      7          6           0       -0.209294   -0.050081    0.000093
      8          6           0        0.562719   -1.246502    0.000004
      9          6           0        0.411382    1.233132    0.000073
     10          6           0        1.992183   -1.173717   -0.000075
     11          1           0        0.040101   -2.194506    0.000025
     12          6           0        1.840762    1.313450    0.000007
     13          1           0       -0.184545    2.136149    0.000125
     14          6           0        2.598513    0.110773   -0.000078
     15          1           0        2.602123   -2.068072   -0.000120
     16          1           0        2.345025    2.272137    0.000003
     17          1           0        3.682928    0.179351   -0.000152
 ---------------------------------------------------------------------

 The electronic state is 1-A.
 Alpha  occ. eigenvalues --  -19.14082 -10.28403 -10.21045 -10.20852 -10.20710
 Alpha  occ. eigenvalues --  -10.20602 -10.20589 -10.20547 -10.18983  -1.02819
 Alpha  occ. eigenvalues --   -0.85009  -0.77100  -0.74657  -0.72981  -0.62488
 Alpha  occ. eigenvalues --   -0.60999  -0.54871  -0.51080  -0.46675  -0.45681
 Alpha  occ. eigenvalues --   -0.44679  -0.44030  -0.42785  -0.41512  -0.38887
 Alpha  occ. eigenvalues --   -0.37325  -0.35558  -0.35174  -0.34762  -0.25878
 Alpha  occ. eigenvalues --   -0.25537  -0.25530
 Alpha virt. eigenvalues --   -0.06108  -0.01860   0.03217   0.09469   0.11929
 Alpha virt. eigenvalues --    0.14706   0.14827   0.15230   0.16541   0.17922
 Alpha virt. eigenvalues --    0.18428   0.19478   0.22020   0.25929   0.27992

  Beta  occ. eigenvalues --  -19.14082 -10.28403 -10.21045 -10.20852 -10.20710
  Beta  occ. eigenvalues --  -10.20602 -10.20589 -10.20547 -10.18983  -1.02819
  Beta  occ. eigenvalues --   -0.85009  -0.77100  -0.74657  -0.72981  -0.62488
  Beta  occ. eigenvalues --   -0.60999  -0.54871  -0.51080  -0.46675  -0.45681
  Beta  occ. eigenvalues --   -0.44679  -0.44030  -0.42785  -0.41512  -0.38887
  Beta  occ. eigenvalues --   -0.37325  -0.35558  -0.35174  -0.34762  -0.25878
  Beta  occ. eigenvalues --   -0.25537  -0.25530
  Beta virt. eigenvalues --   -0.06108  -0.01860   0.03217   0.09469   0.11929
  Beta virt. eigenvalues --    0.14706   0.14827   0.15230   0.16541   0.17922
  Beta virt. eigenvalues --    0.18428   0.19478   0.22020   0.25929   0.27992

 Mulliken charges and spin densities:
               1          2
     1  C    0.400011   0.000000
     2  O   -0.513236  -0.000000
     3  C   -0.401449  -0.000000
     4  H    0.151437   0.000000
     5  H    0.151453   0.000000
     6  H    0.133800   0.000000
     7  C    0.037278  -0.000000
     8  C   -0.111209   0.000000
     9  C   -0.129053   0.000000
    10  C   -0.102295  -0.000000
    11  H    0.117221   0.000000
    12  C   -0.106128   0.000000
    13  H    0.117254  -0.000000
    14  C   -0.091036   0.000000
    15  H    0.117102   0.000000
    16  H    0.116695  -0.000000
    17  H    0.112156   0.000000
 Sum of Mulliken charges =  -0.00000  -0.00000

 Dipole moment (field-independent basis, Debye):
    X=              2.3274    Y=              3.3254    Z=              0.0003  Tot=              4.0589
 Quadrupole moment (field-independent basis, Debye-Ang):
   XX=            -49.5293   YY=            -49.1410   ZZ=            -54.3699
   XY=             -7.7873   XZ=             -0.0013   YZ=             -0.0003

 Normal termination of Gaussian 16 at Fri May 10 12:41:40 2019.
