 Gaussian 16, Revision B.01,
 Gaussian 16:  ES64L-G16RevB.01 20-Dec-2017

 ----------------------------------------------------------------------
 #p td=(50-50,nstates=36) ub3lyp/6-31g(d,p) scrf=(iefpcm,solvent=aceton
 itrile) guess=(mix,always) empiricaldispersion=gd3
 ----------------------------------------------------------------------

 -------------------
 Title Card Required
 -------------------
 Symbolic Z-matrix:
 Charge =  0 Multiplicity = 2

                         Standard orientation:
 ---------------------------------------------------------------------
 Center     Atomic      Atomic             Coordinates (Angstroms)
 Number     Number       Type             X           Y           Z
 ---------------------------------------------------------------------
      1          6           0       -0.557763   -1.281213   -0.459340
      2          6           0        0.576762   -1.274006    0.521885
      3          8           0       -1.215281   -2.493639   -0.359179
      4          6           0       -0.037938   -1.363652   -1.947385
      5          1           0       -0.887950   -1.427232   -2.626184
      6          1           0        0.537567   -0.461160   -2.157917
      7          1           0        0.608109   -2.231982   -2.061781
      8          6           0        0.027006   -1.330473    1.965461
      9          1           0       -0.587633   -0.467599    2.224981
     10          1           0       -0.590717   -2.227739    2.072931
     11          1           0        0.864523   -1.394617    2.662686
     12          6           0       -1.544360   -0.109891   -0.320409
     13          6           0       -2.743854   -0.313477    0.376410
     14          6           0       -1.292138    1.157386   -0.863058
     15          6           0       -3.664867    0.722034    0.534664
     16          1           0       -2.953343   -1.292641    0.794199
     17          6           0       -2.212003    2.195473   -0.705167
     18          1           0       -0.372708    1.348660   -1.403648
     19          6           0       -3.401234    1.982735   -0.005424
     20          1           0       -4.586826    0.543502    1.080152
     21          1           0       -1.997005    3.170393   -1.132409
     22          1           0       -4.115941    2.791062    0.116775
     23          6           0        1.540739   -0.096890    0.341278
     24          6           0        2.688100   -0.242829   -0.452973
     25          6           0        1.306473    1.145650    0.948181
     26          6           0        3.570089    0.822361   -0.640813
     27          1           0        2.888221   -1.201559   -0.915164
     28          6           0        2.186869    2.212163    0.760621
     29          1           0        0.425882    1.296317    1.561067
     30          6           0        3.322769    2.056034   -0.035789
     31          1           0        4.452573    0.685221   -1.259041
     32          1           0        1.982182    3.165283    1.239249
     33          1           0        4.008505    2.885561   -0.180629
     34          8           0        1.346634   -2.468607    0.317689
     35          1           0        0.685839   -3.171932    0.207801
 ---------------------------------------------------------------------

 SCF Done:  E(UB3LYP) =  -770.386797970     A.U. after   25 cycles

 Excitation energies and oscillator strengths:

 Excited State   1:  2.003-A      0.5689 eV 2179.35 nm  f=0.0013  <S**2>=0.753
     55B -> 65B        0.10143
     58B -> 65B        0.18834
     59B -> 65B        0.61551
     60B -> 65B       -0.46325
     61B -> 65B        0.20572
     62B -> 65B       -0.25794
     63B -> 65B        0.24523
     64B -> 65B       -0.43906
 This state for optimization and/or second-order correction.
 Total Energy, E(TD-HF/TD-DFT) =  -770.365891087
 Copying the excited state density for this state as the 1-particle RhoCI density.

 Excited State   2:  2.018-A      1.8407 eV  673.56 nm  f=0.0068  <S**2>=0.768
     60B -> 65B       -0.10905
     61B -> 65B        0.16469
     62B -> 65B        0.62214
     63B -> 65B        0.71630
     64B -> 65B        0.23007

 Excited State   3:  2.018-A      1.9244 eV  644.26 nm  f=0.0030  <S**2>=0.768
     59B -> 65B        0.14857
     61B -> 65B        0.23464
     62B -> 65B       -0.53753
     63B -> 65B        0.16239
     64B -> 65B        0.77607

 Excited State   4:  2.019-A      2.1905 eV  566.00 nm  f=0.0111  <S**2>=0.769
     59B -> 65B       -0.35825
     60B -> 65B        0.26256
     61B -> 65B       -0.25505
     62B -> 65B       -0.48939
     63B -> 65B        0.62562
     64B -> 65B       -0.30939

 Excited State   5:  2.018-A      2.2912 eV  541.13 nm  f=0.0017  <S**2>=0.768
     59B -> 65B       -0.35456
     61B -> 65B        0.89184
     64B -> 65B       -0.22514

 Excited State   6:  2.017-A      2.5874 eV  479.19 nm  f=0.0043  <S**2>=0.767
     59B -> 65B        0.53997
     60B -> 65B        0.82115
     61B -> 65B        0.11353

 Excited State   7:  2.012-A      3.5180 eV  352.43 nm  f=0.0034  <S**2>=0.762
     48B -> 65B       -0.21061
     49B -> 65B       -0.18137
     50B -> 65B        0.15033
     52B -> 65B        0.13395
     57B -> 65B        0.25425
     58B -> 65B        0.84440
     59B -> 65B       -0.14070
     60B -> 65B        0.12269

 Excited State   8:  3.456-A      3.7562 eV  330.08 nm  f=0.0002  <S**2>=2.735
     61A -> 68A       -0.11586
     62A -> 69A       -0.27065
     63A -> 66A        0.27786
     63A -> 67A       -0.17951
     64A -> 66A       -0.21098
     64A -> 67A       -0.21973
     64A -> 68A       -0.11508
     64A -> 69A        0.12861
     65A -> 66A       -0.11086
     65A -> 67A       -0.16698
     65A -> 68A        0.36667
     60B -> 68B        0.14166
     61B -> 69B        0.26671
     62B -> 66B       -0.22918
     62B -> 67B        0.18363
     63B -> 66B        0.24240
     63B -> 68B        0.21851
     63B -> 69B       -0.14282
     64B -> 66B        0.15181
     64B -> 67B        0.25532
     64B -> 68B       -0.29205

 Excited State   9:  3.449-A      3.7813 eV  327.89 nm  f=0.0003  <S**2>=2.724
     61A -> 67A        0.11012
     62A -> 66A        0.31544
     62A -> 67A        0.10224
     63A -> 67A        0.17765
     63A -> 68A        0.19170
     63A -> 69A       -0.22444
     64A -> 67A        0.32378
     64A -> 68A        0.10840
     64A -> 69A        0.17116
     65A -> 66A        0.12467
     65A -> 67A       -0.10139
     65A -> 68A        0.24079
     65A -> 69A        0.13192
     60B -> 67B       -0.10299
     61B -> 66B       -0.30646
     61B -> 67B       -0.11006
     62B -> 66B        0.13050
     62B -> 67B       -0.25791
     62B -> 68B       -0.14440
     62B -> 69B        0.20878
     63B -> 67B       -0.25837
     63B -> 69B       -0.18175
     64B -> 68B       -0.29499
     64B -> 69B       -0.14325

 Excited State  10:  2.020-A      3.9210 eV  316.20 nm  f=0.0010  <S**2>=0.770
     48B -> 65B        0.12831
     49B -> 65B        0.27591
     50B -> 65B       -0.12702
     55B -> 65B        0.62539
     57B -> 65B       -0.54652
     58B -> 65B        0.33006
     59B -> 65B       -0.16930

 Excited State  11:  2.024-A      4.3927 eV  282.25 nm  f=0.0061  <S**2>=0.774
     54B -> 65B       -0.25601
     56B -> 65B        0.94030
     57B -> 65B       -0.12303

 Excited State  12:  2.030-A      4.5291 eV  273.75 nm  f=0.0003  <S**2>=0.781
     54B -> 65B       -0.12673
     55B -> 65B        0.66124
     57B -> 65B        0.69018
     58B -> 65B       -0.17414

 Excited State  13:  2.058-A      4.5917 eV  270.02 nm  f=0.0033  <S**2>=0.809
     51B -> 65B        0.31351
     54B -> 65B        0.87273
     56B -> 65B        0.27941
     57B -> 65B        0.11160

 Excited State  14:  3.431-A      4.6777 eV  265.05 nm  f=0.0002  <S**2>=2.694
     62A -> 69A       -0.26257
     63A -> 66A        0.16117
     63A -> 67A        0.27209
     64A -> 66A       -0.30952
     64A -> 67A        0.12668
     64A -> 68A        0.17626
     65A -> 66A       -0.26714
     65A -> 68A       -0.28337
     53B -> 65B       -0.10786
     61B -> 69B        0.25858
     62B -> 66B       -0.16578
     62B -> 67B       -0.25295
     63B -> 66B        0.25382
     63B -> 68B       -0.24118
     64B -> 66B        0.31315
     64B -> 67B       -0.18046
     64B -> 68B        0.20993

 Excited State  15:  3.445-A      4.6978 eV  263.92 nm  f=0.0000  <S**2>=2.717
     62A -> 66A        0.11742
     62A -> 68A        0.21559
     63A -> 66A        0.16893
     63A -> 68A        0.13437
     63A -> 69A       -0.19313
     64A -> 66A       -0.15162
     64A -> 68A       -0.26258
     64A -> 69A        0.12703
     65A -> 66A        0.29076
     65A -> 67A        0.13329
     65A -> 68A       -0.24622
     65A -> 69A       -0.22859
     61B -> 66B       -0.11721
     61B -> 67B        0.11724
     61B -> 68B       -0.21415
     62B -> 67B        0.10624
     62B -> 68B       -0.10693
     63B -> 66B        0.25172
     63B -> 68B        0.22344
     63B -> 69B       -0.22739
     64B -> 66B       -0.25960
     64B -> 67B       -0.10217
     64B -> 68B        0.29324
     64B -> 69B        0.19621

 Excited State  16:  3.436-A      4.7099 eV  263.24 nm  f=0.0001  <S**2>=2.702
     62A -> 66A        0.18833
     62A -> 67A       -0.22403
     62A -> 68A       -0.16402
     63A -> 66A       -0.30656
     63A -> 69A       -0.21560
     64A -> 66A       -0.20216
     64A -> 67A       -0.34836
     65A -> 67A       -0.12881
     65A -> 68A       -0.12798
     65A -> 69A        0.15656
     61B -> 66B       -0.13850
     61B -> 67B        0.23576
     61B -> 68B        0.16800
     62B -> 66B        0.35547
     62B -> 69B        0.26455
     63B -> 66B        0.11389
     63B -> 67B        0.26720
     64B -> 66B        0.10746
     64B -> 67B        0.22263
     64B -> 68B        0.14365

 Excited State  17:  3.429-A      4.7236 eV  262.48 nm  f=0.0001  <S**2>=2.690
     62A -> 66A       -0.28341
     62A -> 67A       -0.22091
     63A -> 67A        0.20428
     63A -> 68A        0.26005
     64A -> 66A       -0.17001
     64A -> 67A        0.14301
     64A -> 69A       -0.28565
     65A -> 67A       -0.20284
     65A -> 68A        0.10261
     65A -> 69A       -0.20144
     61B -> 66B        0.30522
     61B -> 67B        0.17665
     62B -> 66B        0.10057
     62B -> 67B       -0.29875
     62B -> 68B       -0.20897
     63B -> 66B        0.11190
     63B -> 67B       -0.12717
     63B -> 68B        0.16183
     63B -> 69B        0.21440
     64B -> 68B       -0.11892
     64B -> 69B        0.27950

 Excited State  18:  2.023-A      4.9515 eV  250.40 nm  f=0.0030  <S**2>=0.773
     39B -> 65B        0.11830
     48B -> 65B       -0.34883
     49B -> 65B       -0.45116
     51B -> 65B       -0.34474
     52B -> 65B        0.45289
     54B -> 65B        0.16073
     55B -> 65B        0.32413
     57B -> 65B       -0.26764
     58B -> 65B       -0.26412

 Excited State  19:  2.221-A      5.0659 eV  244.74 nm  f=0.0003  <S**2>=0.983
     65A -> 66A       -0.11326
     48B -> 65B       -0.16499
     50B -> 65B        0.15702
     51B -> 65B        0.41034
     52B -> 65B        0.16373
     53B -> 65B        0.75752
     54B -> 65B       -0.18979
     64B -> 66B        0.14529

 Excited State  20:  3.354-A      5.0801 eV  244.06 nm  f=0.0000  <S**2>=2.563
     62A -> 68A        0.24315
     63A -> 66A       -0.19384
     63A -> 67A       -0.23550
     63A -> 68A        0.18260
     64A -> 66A       -0.10021
     64A -> 67A        0.14339
     64A -> 68A       -0.26342
     64A -> 69A       -0.11421
     65A -> 66A       -0.30361
     65A -> 69A        0.25158
     51B -> 65B       -0.13345
     53B -> 65B       -0.23442
     61B -> 68B       -0.24041
     62B -> 66B        0.15654
     62B -> 67B        0.20582
     63B -> 67B       -0.16270
     63B -> 68B        0.27752
     63B -> 69B        0.16262
     64B -> 66B        0.33495
     64B -> 69B       -0.18480

 Excited State  21:  3.439-A      5.1023 eV  243.00 nm  f=0.0000  <S**2>=2.706
     62A -> 66A        0.11945
     62A -> 67A       -0.31514
     63A -> 66A        0.16944
     63A -> 67A        0.20664
     63A -> 68A        0.18624
     63A -> 69A        0.15916
     64A -> 66A        0.35102
     64A -> 68A       -0.20226
     64A -> 69A        0.19713
     65A -> 66A       -0.16815
     65A -> 67A       -0.22057
     65A -> 68A       -0.13204
     65A -> 69A        0.12675
     61B -> 66B       -0.11159
     61B -> 67B        0.26818
     62B -> 66B       -0.24214
     62B -> 67B       -0.22685
     62B -> 68B       -0.15782
     62B -> 69B       -0.14766
     63B -> 66B       -0.25028
     63B -> 68B        0.17337
     64B -> 67B        0.13653
     64B -> 68B        0.14450
     64B -> 69B       -0.20382

 Excited State  22:  2.030-A      5.1739 eV  239.63 nm  f=0.0012  <S**2>=0.781
     48B -> 65B        0.29547
     49B -> 65B        0.28148
     50B -> 65B       -0.30941
     52B -> 65B        0.81559
     55B -> 65B       -0.10082
     57B -> 65B        0.16861

 Excited State  23:  2.033-A      5.2500 eV  236.16 nm  f=0.0035  <S**2>=0.784
     48B -> 65B       -0.19153
     49B -> 65B       -0.12244
     50B -> 65B        0.23679
     51B -> 65B        0.67988
     52B -> 65B        0.20104
     53B -> 65B       -0.56102
     54B -> 65B       -0.21629

 Excited State  24:  2.007-A      5.3594 eV  231.34 nm  f=0.0034  <S**2>=0.757
     62A -> 68A       -0.20169
     63A -> 66A        0.17949
     63A -> 67A        0.20830
     63A -> 68A       -0.14953
     64A -> 66A        0.16850
     64A -> 67A       -0.16004
     64A -> 68A        0.23748
     64A -> 69A        0.11416
     65A -> 66A        0.38664
     65A -> 67A       -0.11149
     65A -> 69A       -0.22875
     61B -> 68B       -0.22282
     62B -> 66B        0.13512
     62B -> 67B        0.19629
     63B -> 67B       -0.18625
     63B -> 68B        0.25876
     63B -> 69B        0.14909
     64B -> 66B        0.46148
     64B -> 67B       -0.14637
     64B -> 69B       -0.15988

 Excited State  25:  2.019-A      5.3976 eV  229.70 nm  f=0.0002  <S**2>=0.769
     62A -> 67A       -0.24636
     63A -> 66A        0.12960
     63A -> 67A        0.16165
     63A -> 68A        0.15715
     63A -> 69A        0.11868
     64A -> 66A        0.33677
     64A -> 68A       -0.19763
     64A -> 69A        0.13320
     65A -> 66A       -0.17823
     65A -> 67A       -0.22448
     65A -> 68A       -0.13251
     61B -> 66B        0.10159
     61B -> 67B       -0.26954
     62B -> 66B        0.28172
     62B -> 67B        0.24308
     62B -> 68B        0.16951
     62B -> 69B        0.16096
     63B -> 66B        0.34541
     63B -> 68B       -0.20664
     64B -> 67B       -0.18251
     64B -> 68B       -0.17734
     64B -> 69B        0.22450

 Excited State  26:  2.020-A      5.4408 eV  227.88 nm  f=0.0038  <S**2>=0.770
     49B -> 65B        0.57560
     50B -> 65B        0.74192
     51B -> 65B       -0.24083
     52B -> 65B        0.11527

 Excited State  27:  2.020-A      5.5426 eV  223.69 nm  f=0.0016  <S**2>=0.770
     48B -> 65B        0.74047
     49B -> 65B       -0.45711
     50B -> 65B        0.42751

 Excited State  28:  3.348-A      5.7127 eV  217.03 nm  f=0.0004  <S**2>=2.553
     62A -> 67A        0.13730
     63A -> 67A       -0.11958
     64A -> 67A        0.17388
     65A -> 67A       -0.37168
     65A -> 68A       -0.18644
     60B -> 67B        0.11614
     61B -> 67B       -0.21425
     63B -> 67B       -0.38034
     63B -> 68B       -0.15951
     64B -> 67B        0.64032
     64B -> 68B        0.26113

 Excited State  29:  2.143-A      5.7663 eV  215.01 nm  f=0.0109  <S**2>=0.898
     62A -> 67A       -0.20337
     63A -> 67A        0.24624
     63A -> 68A        0.14229
     64A -> 66A        0.16060
     64A -> 67A       -0.13572
     65A -> 67A        0.72896
     65A -> 68A        0.18921
     63B -> 66B        0.10507
     63B -> 67B       -0.22017
     64B -> 67B        0.40503

 Excited State  30:  2.085-A      5.8460 eV  212.08 nm  f=0.0126  <S**2>=0.836
     63A -> 66A       -0.14574
     64A -> 66A        0.18248
     64A -> 67A        0.34217
     65A -> 66A        0.31439
     65A -> 68A       -0.28293
     65A -> 69A        0.16834
     62B -> 66B       -0.19857
     63B -> 67B        0.33387
     63B -> 69B       -0.16603
     64B -> 66B        0.44313
     64B -> 67B        0.15683
     64B -> 68B       -0.28537
     64B -> 69B        0.28460

 Excited State  31:  2.613-A      5.8698 eV  211.23 nm  f=0.0216  <S**2>=1.457
     61A -> 68A       -0.11205
     62A -> 68A        0.18477
     63A -> 67A       -0.23956
     63A -> 68A        0.33467
     64A -> 66A        0.18917
     64A -> 67A       -0.19409
     64A -> 68A        0.62127
     65A -> 66A       -0.16814
     65A -> 68A       -0.31894
     65A -> 69A       -0.11707
     63B -> 66B        0.22133
     63B -> 68B        0.12441
     64B -> 66B       -0.13078
     64B -> 68B       -0.16603
     64B -> 69B       -0.17316

 Excited State  32:  3.191-A      5.8878 eV  210.58 nm  f=0.0002  <S**2>=2.295
     62A -> 66A        0.11333
     63A -> 68A        0.14358
     64A -> 67A       -0.20426
     64A -> 68A        0.11989
     65A -> 66A       -0.31436
     65A -> 69A       -0.30038
     60B -> 66B        0.11661
     61B -> 66B       -0.20218
     63B -> 66B       -0.42328
     63B -> 68B       -0.13156
     63B -> 69B       -0.21480
     64B -> 66B        0.28628
     64B -> 69B        0.50683

 Excited State  33:  2.657-A      5.9294 eV  209.10 nm  f=0.0026  <S**2>=1.515
     62A -> 66A       -0.12686
     62A -> 68A        0.15770
     63A -> 66A        0.25052
     63A -> 68A        0.31980
     63A -> 69A        0.22243
     64A -> 66A       -0.25713
     64A -> 67A       -0.21142
     64A -> 68A        0.17813
     65A -> 66A        0.38883
     65A -> 69A        0.52677
     63B -> 66B       -0.20727
     63B -> 68B       -0.24429

 Excited State  34:  2.655-A      5.9701 eV  207.67 nm  f=0.0041  <S**2>=1.513
     64A -> 67A       -0.13608
     65A -> 68A       -0.11444
     65A -> 69A        0.13534
     47B -> 65B        0.15708
     61B -> 67B       -0.11139
     61B -> 68B        0.29291
     62B -> 67B       -0.33387
     62B -> 68B        0.59564
     63B -> 67B       -0.26941
     63B -> 68B        0.43780
     64B -> 69B        0.10032

 Excited State  35:  2.063-A      5.9883 eV  207.05 nm  f=0.0043  <S**2>=0.814
     62A -> 66A       -0.11846
     62A -> 67A        0.19859
     63A -> 67A        0.10607
     64A -> 67A       -0.19466
     64A -> 68A       -0.20932
     65A -> 68A       -0.16557
     44B -> 65B        0.18227
     46B -> 65B        0.17924
     47B -> 65B        0.70337
     48B -> 65B        0.16771
     61B -> 67B        0.12665
     62B -> 68B       -0.20091
     63B -> 67B       -0.12334
     63B -> 68B       -0.17512
     64B -> 68B       -0.24200

 Excited State  36:  2.204-A      6.0066 eV  206.41 nm  f=0.0115  <S**2>=0.964
     62A -> 66A        0.14550
     62A -> 67A       -0.42092
     63A -> 67A       -0.22917
     64A -> 67A        0.35227
     64A -> 68A        0.25980
     64A -> 69A        0.10030
     65A -> 68A        0.23522
     44B -> 65B        0.13845
     46B -> 65B        0.12112
     47B -> 65B        0.49779
     48B -> 65B        0.10742
     61B -> 66B        0.13145
     61B -> 67B       -0.11358
     63B -> 67B        0.18409
     64B -> 68B        0.24649

 The electronic state is 2-A.
 Alpha  occ. eigenvalues --  -19.19608 -19.14621 -10.25976 -10.25377 -10.20210
 Alpha  occ. eigenvalues --  -10.19886 -10.19812 -10.19381 -10.19337 -10.19285
 Alpha  occ. eigenvalues --  -10.19262 -10.19227 -10.19141 -10.19107 -10.19062
 Alpha  occ. eigenvalues --  -10.19037 -10.18824 -10.17723  -1.05268  -1.01110
 Alpha  occ. eigenvalues --   -0.86110  -0.85391  -0.79821  -0.76016  -0.74802
 Alpha  occ. eigenvalues --   -0.74562  -0.72982  -0.72569  -0.65463  -0.62369
 Alpha  occ. eigenvalues --   -0.60715  -0.60039  -0.59117  -0.55628  -0.52984
 Alpha  occ. eigenvalues --   -0.51124  -0.50678  -0.47501  -0.46888  -0.46059
 Alpha  occ. eigenvalues --   -0.44981  -0.44622  -0.44366  -0.42500  -0.42317
 Alpha  occ. eigenvalues --   -0.41646  -0.41496  -0.40718  -0.39303  -0.38105
 Alpha  occ. eigenvalues --   -0.37636  -0.37004  -0.36810  -0.36321  -0.34705
 Alpha  occ. eigenvalues --   -0.34404  -0.33902  -0.33234  -0.31735  -0.29825
 Alpha  occ. eigenvalues --   -0.27953  -0.25844  -0.25150  -0.24536  -0.24382
 Alpha virt. eigenvalues --   -0.01081  -0.00956  -0.00667   0.00276   0.08930
 Alpha virt. eigenvalues --    0.09423   0.11113   0.12420   0.12793   0.13516
 Alpha virt. eigenvalues --    0.13713   0.14746   0.14920   0.15407   0.15679

  Beta  occ. eigenvalues --  -19.17491 -19.14616 -10.25998 -10.25331 -10.20186
  Beta  occ. eigenvalues --  -10.19889 -10.19562 -10.19375 -10.19330 -10.19285
  Beta  occ. eigenvalues --  -10.19258 -10.19220 -10.19138 -10.19103 -10.19061
  Beta  occ. eigenvalues --  -10.19038 -10.18816 -10.17708  -1.03576  -0.98299
  Beta  occ. eigenvalues --   -0.85946  -0.85353  -0.79264  -0.75704  -0.74750
  Beta  occ. eigenvalues --   -0.74536  -0.72509  -0.72283  -0.65171  -0.62153
  Beta  occ. eigenvalues --   -0.60678  -0.60022  -0.58940  -0.55429  -0.52854
  Beta  occ. eigenvalues --   -0.51039  -0.49574  -0.47293  -0.46206  -0.45020
  Beta  occ. eigenvalues --   -0.44901  -0.44335  -0.44214  -0.42401  -0.42164
  Beta  occ. eigenvalues --   -0.41549  -0.40885  -0.39814  -0.38950  -0.37947
  Beta  occ. eigenvalues --   -0.37077  -0.36782  -0.36272  -0.35765  -0.34414
  Beta  occ. eigenvalues --   -0.34151  -0.33830  -0.32774  -0.28780  -0.27680
  Beta  occ. eigenvalues --   -0.25803  -0.25074  -0.24754  -0.24301
  Beta virt. eigenvalues --   -0.14892  -0.01052  -0.00839  -0.00611   0.00305
  Beta virt. eigenvalues --    0.08972   0.09475   0.11242   0.12645   0.12990
  Beta virt. eigenvalues --    0.13621   0.13884   0.14826   0.14964   0.15498

 Mulliken charges and spin densities:
               1          2
     1  C    0.202934  -0.029191
     2  C    0.237930   0.018706
     3  O   -0.398290   0.832996
     4  C   -0.316172   0.109164
     5  H    0.135649  -0.003787
     6  H    0.144278   0.026996
     7  H    0.134532  -0.003937
     8  C   -0.327093   0.014689
     9  H    0.119021  -0.000393
    10  H    0.110068  -0.001632
    11  H    0.118626  -0.001209
    12  C    0.089148   0.011373
    13  C   -0.121549   0.012611
    14  C   -0.117598   0.006704
    15  C   -0.104741  -0.004855
    16  H    0.104912  -0.001246
    17  C   -0.111595  -0.003843
    18  H    0.105718  -0.000307
    19  C   -0.095207   0.009368
    20  H    0.104266   0.000430
    21  H    0.104718   0.000101
    22  H    0.103885  -0.000406
    23  C    0.077179  -0.000933
    24  C   -0.116467   0.005462
    25  C   -0.119814   0.003269
    26  C   -0.106382  -0.002781
    27  H    0.108491  -0.000289
    28  C   -0.111638  -0.001926
    29  H    0.101645  -0.000122
    30  C   -0.096082   0.005505
    31  H    0.101391   0.000103
    32  H    0.102496   0.000055
    33  H    0.101645  -0.000229
    34  O   -0.585973   0.002639
    35  H    0.320066  -0.003086
 Sum of Mulliken charges =  -0.00000   1.00000

 Dipole moment (field-independent basis, Debye):
    X=             -0.6967    Y=              2.3599    Z=             -0.5409  Tot=              2.5193
 Quadrupole moment (field-independent basis, Debye-Ang):
   XX=           -102.8095   YY=           -101.0885   ZZ=           -102.5852
   XY=              0.5102   XZ=             -7.0565   YZ=              0.4614

 Normal termination of Gaussian 16 at Sat May 25 04:45:09 2019.
