 Gaussian 16, Revision B.01,
 Gaussian 16:  ES64L-G16RevB.01 20-Dec-2017

 ----------------------------------------------------------------------
 #p td=(50-50,nstates=18) ub3lyp/6-31g(d,p) scrf=(iefpcm,solvent=aceton
 itrile) guess=(mix,always) empiricaldispersion=gd3
 ----------------------------------------------------------------------

 -------------------
 Title Card Required
 -------------------
 Symbolic Z-matrix:
 Charge =  0 Multiplicity = 2

                         Standard orientation:
 ---------------------------------------------------------------------
 Center     Atomic      Atomic             Coordinates (Angstroms)
 Number     Number       Type             X           Y           Z
 ---------------------------------------------------------------------
      1          6           0       -0.851341   -1.381574   -0.833049
      2          6           0        0.712965   -1.240061    0.847106
      3          8           0       -1.257885   -2.501838   -0.437968
      4          6           0        0.115637   -1.346560   -2.007036
      5          1           0       -0.485239   -1.433195   -2.920157
      6          1           0        0.710606   -0.437479   -2.076983
      7          1           0        0.781903   -2.207056   -1.947024
      8          6           0       -0.226560   -1.182191    2.022178
      9          1           0       -0.728572   -0.221190    2.120021
     10          1           0       -0.989002   -1.957525    1.923511
     11          1           0        0.346269   -1.372977    2.938557
     12          6           0       -1.646753   -0.151421   -0.524414
     13          6           0       -2.839070   -0.290698    0.207973
     14          6           0       -1.258170    1.132670   -0.942002
     15          6           0       -3.616048    0.820209    0.522360
     16          1           0       -3.137703   -1.285607    0.518522
     17          6           0       -2.035982    2.246251   -0.625107
     18          1           0       -0.340193    1.273394   -1.499208
     19          6           0       -3.214867    2.095110    0.108573
     20          1           0       -4.535276    0.695644    1.087089
     21          1           0       -1.718347    3.232806   -0.948870
     22          1           0       -3.818662    2.963554    0.354525
     23          6           0        1.611233   -0.150752    0.527364
     24          6           0        2.762522   -0.378341   -0.267096
     25          6           0        1.353769    1.172994    0.958392
     26          6           0        3.609322    0.668077   -0.611205
     27          1           0        2.973564   -1.385828   -0.604378
     28          6           0        2.204791    2.214814    0.605890
     29          1           0        0.478974    1.387804    1.559610
     30          6           0        3.336433    1.972062   -0.180076
     31          1           0        4.487532    0.469817   -1.218567
     32          1           0        1.984458    3.222607    0.944869
     33          1           0        3.997942    2.788441   -0.453033
     34          8           0        1.192643   -2.484747    0.560407
     35          1           0        0.406392   -3.044064    0.382895
 ---------------------------------------------------------------------

 SCF Done:  E(UB3LYP) =  -770.415149633     A.U. after   19 cycles

 Excitation energies and oscillator strengths:

 Excited State   1:  2.199-A      2.4391 eV  508.31 nm  f=0.0012  <S**2>=0.958
     65A -> 66A       -0.13534
     63B -> 65B       -0.38868
     64B -> 65B        0.87837
     64B -> 66B       -0.14794
 This state for optimization and/or second-order correction.
 Total Energy, E(TD-HF/TD-DFT) =  -770.325512964
 Copying the excited state density for this state as the 1-particle RhoCI density.

 Excited State   2:  2.139-A      2.8185 eV  439.89 nm  f=0.1321  <S**2>=0.894
     65A -> 66A        0.91873
     65A -> 69A        0.10478
     60B -> 65B        0.13543
     61B -> 65B       -0.12932
     62B -> 65B       -0.11215
     63B -> 65B       -0.20681

 Excited State   3:  2.274-A      2.9810 eV  415.92 nm  f=0.0699  <S**2>=1.042
     60A -> 66A       -0.10560
     62A -> 66A       -0.16492
     65A -> 66A        0.23288
     62B -> 65B        0.34898
     63B -> 65B        0.76101
     64B -> 65B        0.35394

 Excited State   4:  2.172-A      3.1064 eV  399.12 nm  f=0.0176  <S**2>=0.930
     62A -> 66A       -0.11794
     65A -> 67A        0.18552
     65A -> 68A        0.17053
     60B -> 65B        0.11607
     61B -> 65B        0.22063
     61B -> 66B        0.10228
     62B -> 65B        0.81702
     63B -> 65B       -0.32922
     64B -> 65B       -0.17512

 Excited State   5:  2.302-A      3.2022 eV  387.19 nm  f=0.0438  <S**2>=1.075
     62A -> 66A        0.19595
     65A -> 66A        0.19682
     65A -> 67A        0.13935
     65A -> 69A       -0.32776
     60B -> 65B       -0.36983
     61B -> 65B        0.73105
     62B -> 66B        0.15934

 Excited State   6:  2.311-A      3.4202 eV  362.50 nm  f=0.0086  <S**2>=1.085
     63A -> 66A        0.13170
     64A -> 66A        0.12520
     65A -> 67A        0.35638
     65A -> 69A        0.23562
     60B -> 65B        0.63685
     61B -> 65B        0.42595
     62B -> 65B       -0.27121
     63B -> 65B        0.15051
     63B -> 66B       -0.15843

 Excited State   7:  2.121-A      3.7075 eV  334.42 nm  f=0.0053  <S**2>=0.875
     65A -> 67A        0.84425
     65A -> 68A        0.20369
     60B -> 65B       -0.21353
     61B -> 65B       -0.36895
     63B -> 65B        0.10105

 Excited State   8:  3.069-A      4.0043 eV  309.63 nm  f=0.0149  <S**2>=2.105
     60A -> 66A        0.10326
     61A -> 67A       -0.13203
     61A -> 68A        0.15127
     62A -> 66A        0.31345
     62A -> 67A        0.12676
     62A -> 68A       -0.12941
     62A -> 69A       -0.12742
     63A -> 67A        0.23966
     63A -> 68A       -0.20966
     64A -> 66A       -0.19250
     64A -> 67A        0.11374
     65A -> 66A       -0.12170
     65A -> 67A       -0.12402
     65A -> 68A        0.20420
     60B -> 65B        0.30861
     60B -> 66B        0.13772
     60B -> 67B        0.10980
     61B -> 67B        0.17972
     61B -> 68B       -0.14952
     62B -> 65B        0.21972
     62B -> 66B        0.22892
     62B -> 67B       -0.19542
     62B -> 68B        0.11270
     62B -> 69B        0.11794
     63B -> 65B        0.19340
     63B -> 66B        0.21149
     63B -> 67B        0.17197
     63B -> 68B       -0.10402
     63B -> 69B        0.10507
     64B -> 66B        0.12214

 Excited State   9:  2.170-A      4.0305 eV  307.62 nm  f=0.0045  <S**2>=0.927
     65A -> 67A       -0.24032
     65A -> 68A        0.91153
     62B -> 65B       -0.15666
     62B -> 67B        0.12045

 Excited State  10:  2.988-A      4.1578 eV  298.19 nm  f=0.0005  <S**2>=1.981
     62A -> 66A        0.20908
     63A -> 66A       -0.41869
     64A -> 66A        0.82858
     64A -> 70A        0.14291
     64B -> 66B       -0.11716

 Excited State  11:  2.816-A      4.2137 eV  294.24 nm  f=0.0623  <S**2>=1.733
     61A -> 67A        0.27832
     61A -> 68A        0.22004
     63A -> 67A        0.21237
     63A -> 68A        0.14577
     64A -> 67A        0.12792
     65A -> 69A        0.43238
     59B -> 65B        0.28982
     60B -> 65B       -0.42170
     60B -> 66B        0.12368
     61B -> 65B        0.17867
     61B -> 66B       -0.12621
     61B -> 67B       -0.15871
     61B -> 68B       -0.19482
     62B -> 66B       -0.10418
     62B -> 67B       -0.14504
     62B -> 68B       -0.12875
     63B -> 67B        0.16137
     63B -> 68B        0.14802

 Excited State  12:  2.624-A      4.3330 eV  286.14 nm  f=0.0164  <S**2>=1.472
     61A -> 67A       -0.22133
     61A -> 68A       -0.18493
     62A -> 66A        0.11165
     63A -> 67A       -0.18704
     63A -> 68A       -0.11609
     64A -> 67A       -0.11262
     65A -> 69A        0.38948
     59B -> 65B        0.67540
     61B -> 67B        0.16778
     61B -> 68B        0.18652
     62B -> 67B        0.14139
     62B -> 68B        0.13524
     63B -> 67B       -0.15384
     63B -> 68B       -0.14398

 Excited State  13:  2.328-A      4.3931 eV  282.22 nm  f=0.0773  <S**2>=1.104
     61A -> 66A       -0.12992
     62A -> 66A       -0.10805
     63A -> 66A        0.29334
     65A -> 69A       -0.60137
     59B -> 65B        0.61095
     60B -> 65B        0.12438
     61B -> 65B       -0.10336
     62B -> 67B       -0.10727

 Excited State  14:  3.163-A      4.4998 eV  275.53 nm  f=0.0217  <S**2>=2.251
     61A -> 66A       -0.19907
     62A -> 66A        0.37077
     63A -> 66A        0.61205
     64A -> 66A        0.21616
     65A -> 69A        0.16092
     59B -> 65B       -0.18708
     60B -> 65B       -0.17534
     61B -> 65B       -0.11879
     61B -> 66B       -0.16988
     62B -> 66B        0.25497
     63B -> 66B       -0.21303
     63B -> 67B       -0.13400
     64B -> 66B       -0.14538

 Excited State  15:  3.373-A      4.6175 eV  268.51 nm  f=0.0108  <S**2>=2.594
     61A -> 67A        0.21727
     62A -> 66A        0.44568
     62A -> 67A       -0.14475
     62A -> 68A        0.14099
     63A -> 66A       -0.15643
     63A -> 67A       -0.20647
     63A -> 68A        0.26726
     64A -> 66A       -0.15089
     64A -> 68A        0.12513
     60B -> 65B        0.13129
     60B -> 67B       -0.13565
     61B -> 67B       -0.29942
     61B -> 68B        0.10073
     62B -> 66B        0.25155
     62B -> 67B        0.21362
     62B -> 68B       -0.21758
     63B -> 66B        0.24992
     63B -> 67B       -0.13732
     63B -> 68B        0.15073
     64B -> 66B        0.15178

 Excited State  16:  2.544-A      4.7790 eV  259.44 nm  f=0.0020  <S**2>=1.368
     64A -> 66A        0.14324
     58B -> 65B        0.28618
     63B -> 65B       -0.10429
     63B -> 66B       -0.38456
     64B -> 65B        0.12512
     64B -> 66B        0.81657
     64B -> 70B       -0.10388

 Excited State  17:  2.481-A      4.8140 eV  257.55 nm  f=0.0251  <S**2>=1.288
     58A -> 66A        0.18545
     61A -> 66A       -0.16346
     62A -> 69A       -0.10243
     58B -> 65B        0.81132
     58B -> 66B       -0.10339
     61B -> 66B       -0.11745
     63B -> 66B        0.17134
     64B -> 66B       -0.27282

 Excited State  18:  3.336-A      4.9064 eV  252.70 nm  f=0.0026  <S**2>=2.533
     61A -> 66A        0.67697
     61A -> 69A        0.15694
     63A -> 66A        0.21773
     63A -> 69A        0.15953
     64A -> 66A        0.10132
     58B -> 65B        0.21422
     60B -> 68B       -0.10961
     61B -> 66B        0.36111
     62B -> 66B        0.23188
     63B -> 66B       -0.12047
     63B -> 67B        0.13638
     63B -> 69B        0.11005

 The electronic state is 2-A.
 Alpha  occ. eigenvalues --  -19.17540 -19.12515 -10.27052 -10.26662 -10.20270
 Alpha  occ. eigenvalues --  -10.19740 -10.19689 -10.19648 -10.19612 -10.19606
 Alpha  occ. eigenvalues --  -10.19416 -10.19359 -10.19329 -10.19328 -10.19297
 Alpha  occ. eigenvalues --  -10.19200 -10.18342 -10.17786  -1.06413  -1.01778
 Alpha  occ. eigenvalues --   -0.86136  -0.85667  -0.78691  -0.76603  -0.75053
 Alpha  occ. eigenvalues --   -0.74867  -0.73030  -0.72203  -0.65012  -0.62562
 Alpha  occ. eigenvalues --   -0.60800  -0.60308  -0.57719  -0.54945  -0.52385
 Alpha  occ. eigenvalues --   -0.51271  -0.50403  -0.47559  -0.46394  -0.45854
 Alpha  occ. eigenvalues --   -0.45469  -0.44687  -0.44263  -0.43165  -0.42439
 Alpha  occ. eigenvalues --   -0.42326  -0.41340  -0.40828  -0.38964  -0.38625
 Alpha  occ. eigenvalues --   -0.38268  -0.37280  -0.37025  -0.35922  -0.35303
 Alpha  occ. eigenvalues --   -0.34403  -0.34228  -0.33705  -0.31761  -0.27785
 Alpha  occ. eigenvalues --   -0.26219  -0.25516  -0.25176  -0.24783  -0.17818
 Alpha virt. eigenvalues --   -0.04526  -0.01177  -0.00021   0.00715   0.05025
 Alpha virt. eigenvalues --    0.08732   0.09809   0.11891   0.12426   0.13374
 Alpha virt. eigenvalues --    0.13713   0.14689   0.15006   0.15146   0.16169

  Beta  occ. eigenvalues --  -19.17311 -19.12158 -10.27007 -10.25854 -10.20422
  Beta  occ. eigenvalues --  -10.19758 -10.19602 -10.19576 -10.19505 -10.19440
  Beta  occ. eigenvalues --  -10.19415 -10.19378 -10.19360 -10.19347 -10.19209
  Beta  occ. eigenvalues --  -10.19161 -10.18358 -10.17774  -1.05741  -1.01135
  Beta  occ. eigenvalues --   -0.85935  -0.85575  -0.78093  -0.76430  -0.74871
  Beta  occ. eigenvalues --   -0.74814  -0.72749  -0.72028  -0.64348  -0.62407
  Beta  occ. eigenvalues --   -0.60698  -0.60242  -0.57442  -0.54778  -0.52157
  Beta  occ. eigenvalues --   -0.50728  -0.49701  -0.46774  -0.46109  -0.45686
  Beta  occ. eigenvalues --   -0.45328  -0.44592  -0.44216  -0.42955  -0.42343
  Beta  occ. eigenvalues --   -0.42292  -0.40980  -0.40568  -0.38607  -0.38342
  Beta  occ. eigenvalues --   -0.38029  -0.36908  -0.36666  -0.35638  -0.35200
  Beta  occ. eigenvalues --   -0.34227  -0.34120  -0.32812  -0.30906  -0.26775
  Beta  occ. eigenvalues --   -0.25714  -0.25081  -0.24825  -0.24471
  Beta virt. eigenvalues --   -0.10196  -0.03042  -0.00927   0.00333   0.01891
  Beta virt. eigenvalues --    0.06747   0.08861   0.09862   0.12031   0.12481
  Beta virt. eigenvalues --    0.13451   0.13849   0.14900   0.15273   0.15414

 Mulliken charges and spin densities:
               1          2
     1  C    0.328005   0.050984
     2  C    0.214491   0.509799
     3  O   -0.583002   0.137463
     4  C   -0.356173   0.001253
     5  H    0.134483   0.005617
     6  H    0.124778  -0.000385
     7  H    0.123751   0.000979
     8  C   -0.345485  -0.024880
     9  H    0.131732   0.001431
    10  H    0.129342   0.007690
    11  H    0.132991   0.027872
    12  C    0.084685  -0.024685
    13  C   -0.116765   0.035448
    14  C   -0.122567   0.031313
    15  C   -0.101547  -0.017316
    16  H    0.106513  -0.001724
    17  C   -0.108825  -0.018061
    18  H    0.106512  -0.001282
    19  C   -0.092862   0.037021
    20  H    0.104893   0.000652
    21  H    0.106043   0.000634
    22  H    0.106619  -0.001648
    23  C    0.103532  -0.130322
    24  C   -0.119930   0.156264
    25  C   -0.123258   0.152509
    26  C   -0.101013  -0.082782
    27  H    0.111846  -0.006730
    28  C   -0.108283  -0.083204
    29  H    0.105033  -0.006538
    30  C   -0.096155   0.167531
    31  H    0.105243   0.002979
    32  H    0.106081   0.002941
    33  H    0.105765  -0.007572
    34  O   -0.537892   0.067318
    35  H    0.341420   0.009431
 Sum of Mulliken charges =  -0.00000   1.00000

 Dipole moment (field-independent basis, Debye):
    X=              0.4852    Y=              3.8200    Z=              0.2800  Tot=              3.8609
 Quadrupole moment (field-independent basis, Debye-Ang):
   XX=           -100.9435   YY=           -103.6466   ZZ=           -102.3337
   XY=             -2.1001   XZ=             -7.7013   YZ=             -0.7372

 Normal termination of Gaussian 16 at Fri May 24 19:11:13 2019.
