 Gaussian 16, Revision B.01,
 Gaussian 16:  ES64L-G16RevB.01 20-Dec-2017

 ----------------------------------------------------------------------
 #p td=(50-50,nstates=36) ub3lyp/6-31g(d,p) scrf=(iefpcm,solvent=aceton
 itrile) guess=(mix,always) empiricaldispersion=gd3
 ----------------------------------------------------------------------

 -------------------
 Title Card Required
 -------------------
 Symbolic Z-matrix:
 Charge =  0 Multiplicity = 2

                         Standard orientation:
 ---------------------------------------------------------------------
 Center     Atomic      Atomic             Coordinates (Angstroms)
 Number     Number       Type             X           Y           Z
 ---------------------------------------------------------------------
      1          6           0        0.512470   -1.256482    0.360064
      2          6           0       -0.553595   -1.247426   -0.383861
      3          8           0        1.215739   -2.467926    0.314140
      4          6           0        0.072514   -1.333531    1.899599
      5          1           0        0.964833   -1.366524    2.522090
      6          1           0       -0.513701   -0.441701    2.125381
      7          1           0       -0.539784   -2.219073    2.051502
      8          6           0       -0.047596   -1.297405   -1.858597
      9          1           0        0.515871   -0.410534   -2.150230
     10          1           0        0.597652   -2.172955   -1.982516
     11          1           0       -0.914334   -1.399347   -2.512302
     12          6           0        1.553428   -0.101858    0.251604
     13          6           0        2.722193   -0.327115   -0.489167
     14          6           0        1.391148    1.137769    0.883353
     15          6           0        3.697095    0.663824   -0.609824
     16          1           0        2.865505   -1.285446   -0.977189
     17          6           0        2.365555    2.130014    0.765942
     18          1           0        0.500655    1.343640    1.465320
     19          6           0        3.521035    1.898752    0.016977
     20          1           0        4.591994    0.469252   -1.193488
     21          1           0        2.220831    3.083331    1.265384
     22          1           0        4.278750    2.671463   -0.071753
     23          6           0       -1.556882   -0.067352   -0.256272
     24          6           0       -2.780045   -0.252582    0.402837
     25          6           0       -1.286656    1.192068   -0.810238
     26          6           0       -3.699122    0.792877    0.515970
     27          1           0       -3.013327   -1.223117    0.821468
     28          6           0       -2.205314    2.236723   -0.701873
     29          1           0       -0.351145    1.372689   -1.325847
     30          6           0       -3.415919    2.043561   -0.034130
     31          1           0       -4.640112    0.623894    1.031595
     32          1           0       -1.970518    3.201974   -1.140736
     33          1           0       -4.131150    2.856253    0.051327
     34          8           0       -1.391274   -2.429998   -0.234948
     35          1           0       -0.799592   -3.191445   -0.327849
 ---------------------------------------------------------------------

 SCF Done:  E(UB3LYP) =  -770.332999928     A.U. after   23 cycles

 Excitation energies and oscillator strengths:

 Excited State   1:  2.003-A      0.6751 eV 1836.54 nm  f=0.0011  <S**2>=0.753
     59B -> 65B        0.70451
     60B -> 65B       -0.41765
     61B -> 65B        0.12105
     62B -> 65B       -0.21913
     63B -> 65B       -0.30463
     64B -> 65B       -0.39996
 This state for optimization and/or second-order correction.
 Total Energy, E(TD-HF/TD-DFT) =  -770.308190525
 Copying the excited state density for this state as the 1-particle RhoCI density.

 Excited State   2:  2.020-A      2.1108 eV  587.38 nm  f=0.0050  <S**2>=0.770
     59B -> 65B        0.23002
     60B -> 65B       -0.19088
     61B -> 65B        0.34347
     62B -> 65B        0.35154
     63B -> 65B       -0.29888
     64B -> 65B        0.75684

 Excited State   3:  2.017-A      2.1678 eV  571.94 nm  f=0.0055  <S**2>=0.767
     60B -> 65B       -0.18704
     62B -> 65B        0.87327
     63B -> 65B        0.21616
     64B -> 65B       -0.38846

 Excited State   4:  2.018-A      2.3654 eV  524.16 nm  f=0.0072  <S**2>=0.768
     59B -> 65B        0.34916
     60B -> 65B       -0.20770
     62B -> 65B       -0.15092
     63B -> 65B        0.85843
     64B -> 65B        0.26389

 Excited State   5:  2.018-A      2.4691 eV  502.15 nm  f=0.0013  <S**2>=0.768
     59B -> 65B       -0.28533
     61B -> 65B        0.90282
     62B -> 65B       -0.15707
     63B -> 65B        0.17239
     64B -> 65B       -0.20097

 Excited State   6:  2.017-A      2.7397 eV  452.55 nm  f=0.0037  <S**2>=0.767
     59B -> 65B        0.47064
     60B -> 65B        0.83016
     61B -> 65B        0.21663
     62B -> 65B        0.10861

 Excited State   7:  2.010-A      3.5455 eV  349.69 nm  f=0.0046  <S**2>=0.760
     48B -> 65B       -0.18459
     49B -> 65B        0.18752
     50B -> 65B       -0.17271
     55B -> 65B        0.12704
     57B -> 65B       -0.38509
     58B -> 65B        0.80901
     60B -> 65B        0.10697

 Excited State   8:  3.453-A      3.7506 eV  330.57 nm  f=0.0002  <S**2>=2.730
     61A -> 68A       -0.10051
     62A -> 67A        0.10891
     62A -> 69A        0.26691
     63A -> 66A       -0.24555
     63A -> 67A       -0.25911
     64A -> 66A       -0.15430
     64A -> 68A       -0.28636
     64A -> 69A       -0.10349
     65A -> 66A       -0.27689
     65A -> 67A        0.26121
     61B -> 68B        0.12032
     61B -> 69B       -0.24639
     62B -> 66B       -0.15163
     62B -> 67B        0.14897
     62B -> 68B        0.24993
     62B -> 69B        0.13130
     63B -> 66B       -0.29880
     63B -> 68B       -0.12072
     64B -> 66B        0.15365
     64B -> 67B        0.35187

 Excited State   9:  3.452-A      3.7768 eV  328.28 nm  f=0.0002  <S**2>=2.730
     61A -> 66A       -0.10607
     62A -> 67A        0.31159
     63A -> 68A       -0.19345
     63A -> 69A       -0.26246
     64A -> 66A       -0.33196
     64A -> 68A        0.10746
     65A -> 68A       -0.32371
     65A -> 69A        0.19281
     61B -> 66B        0.27267
     61B -> 67B        0.14376
     62B -> 66B       -0.16094
     62B -> 67B        0.28998
     63B -> 68B        0.16157
     63B -> 69B        0.29038
     64B -> 68B        0.34832
     64B -> 69B       -0.14535

 Excited State  10:  2.024-A      3.9812 eV  311.42 nm  f=0.0019  <S**2>=0.774
     49B -> 65B       -0.19356
     50B -> 65B        0.13452
     55B -> 65B       -0.26018
     56B -> 65B        0.19775
     57B -> 65B        0.71778
     58B -> 65B        0.51627
     59B -> 65B       -0.11550

 Excited State  11:  2.072-A      4.5913 eV  270.04 nm  f=0.0035  <S**2>=0.823
     50B -> 65B        0.10150
     54B -> 65B       -0.47267
     55B -> 65B        0.34254
     56B -> 65B        0.76415

 Excited State  12:  2.064-A      4.6562 eV  266.28 nm  f=0.0031  <S**2>=0.815
     48B -> 65B       -0.13117
     54B -> 65B        0.46511
     55B -> 65B        0.79127
     57B -> 65B        0.28726

 Excited State  13:  3.410-A      4.6819 eV  264.82 nm  f=0.0002  <S**2>=2.657
     62A -> 67A       -0.15034
     62A -> 69A       -0.26164
     63A -> 66A       -0.19152
     63A -> 67A        0.31108
     64A -> 66A       -0.15404
     64A -> 68A       -0.25035
     65A -> 66A       -0.29323
     65A -> 67A       -0.25414
     54B -> 65B        0.13988
     61B -> 66B       -0.13360
     61B -> 69B        0.24505
     62B -> 66B        0.12066
     62B -> 67B        0.16244
     62B -> 68B        0.23228
     62B -> 69B       -0.10358
     63B -> 66B        0.31795
     63B -> 67B        0.12937
     64B -> 66B       -0.23770
     64B -> 67B        0.29975

 Excited State  14:  3.448-A      4.6984 eV  263.89 nm  f=0.0000  <S**2>=2.722
     62A -> 66A       -0.18947
     62A -> 68A       -0.23797
     63A -> 66A        0.28438
     63A -> 67A        0.20621
     63A -> 68A       -0.11728
     64A -> 67A        0.14050
     64A -> 68A        0.10666
     64A -> 69A        0.25455
     65A -> 66A       -0.21818
     65A -> 67A        0.31875
     61B -> 67B        0.15469
     61B -> 68B        0.23446
     62B -> 66B        0.17833
     62B -> 68B       -0.10725
     62B -> 69B       -0.24644
     63B -> 66B        0.14133
     63B -> 67B       -0.30256
     63B -> 68B        0.12231
     64B -> 66B        0.34124
     64B -> 67B        0.20396

 Excited State  15:  3.426-A      4.7135 eV  263.04 nm  f=0.0002  <S**2>=2.684
     62A -> 66A        0.18879
     62A -> 67A        0.19742
     62A -> 68A       -0.10441
     63A -> 69A       -0.31104
     64A -> 66A        0.13625
     64A -> 67A       -0.32547
     64A -> 69A        0.12978
     65A -> 68A        0.36945
     54B -> 65B       -0.10761
     61B -> 66B        0.18471
     61B -> 67B       -0.18932
     62B -> 66B       -0.27558
     62B -> 67B       -0.15274
     63B -> 66B        0.18448
     63B -> 69B        0.33434
     64B -> 68B       -0.36308

 Excited State  16:  3.450-A      4.7287 eV  262.20 nm  f=0.0000  <S**2>=2.725
     62A -> 66A        0.22030
     62A -> 67A       -0.27344
     63A -> 68A       -0.32433
     64A -> 66A       -0.26645
     64A -> 67A       -0.17791
     64A -> 68A        0.14970
     65A -> 69A       -0.34759
     61B -> 66B       -0.26975
     61B -> 67B       -0.21401
     62B -> 66B       -0.17323
     62B -> 67B        0.27925
     63B -> 68B        0.35914
     64B -> 69B        0.34246

 Excited State  17:  2.039-A      4.7925 eV  258.71 nm  f=0.0003  <S**2>=0.789
     48B -> 65B       -0.13867
     49B -> 65B       -0.11065
     54B -> 65B        0.65504
     55B -> 65B       -0.29063
     56B -> 65B        0.56761
     57B -> 65B       -0.30230

 Excited State  18:  3.455-A      5.0748 eV  244.31 nm  f=0.0000  <S**2>=2.734
     62A -> 66A        0.16914
     62A -> 68A        0.22472
     63A -> 66A       -0.28426
     63A -> 67A        0.28559
     64A -> 68A       -0.13957
     64A -> 69A        0.25146
     65A -> 66A        0.27646
     65A -> 67A        0.30511
     61B -> 67B       -0.10662
     61B -> 68B       -0.20430
     62B -> 67B        0.15061
     62B -> 68B        0.13757
     62B -> 69B       -0.21069
     63B -> 66B        0.14171
     63B -> 67B        0.32392
     64B -> 66B        0.38551
     64B -> 67B       -0.14348

 Excited State  19:  3.443-A      5.1157 eV  242.36 nm  f=0.0000  <S**2>=2.714
     62A -> 66A        0.31246
     63A -> 68A       -0.27517
     63A -> 69A        0.13921
     64A -> 67A        0.41618
     65A -> 68A        0.25842
     65A -> 69A        0.29747
     61B -> 66B        0.15204
     61B -> 67B       -0.24353
     62B -> 66B        0.28331
     62B -> 67B        0.15658
     63B -> 66B       -0.13265
     63B -> 68B        0.29237
     64B -> 68B       -0.19250
     64B -> 69B       -0.30344

 Excited State  20:  2.023-A      5.2135 eV  237.82 nm  f=0.0031  <S**2>=0.773
     39B -> 65B       -0.10203
     48B -> 65B       -0.41256
     49B -> 65B        0.48478
     50B -> 65B       -0.16243
     51B -> 65B        0.28843
     52B -> 65B        0.36794
     53B -> 65B        0.32873
     55B -> 65B       -0.19862
     57B -> 65B        0.29569
     58B -> 65B       -0.19723

 Excited State  21:  2.027-A      5.2827 eV  234.70 nm  f=0.0003  <S**2>=0.777
     49B -> 65B       -0.19330
     51B -> 65B       -0.63478
     53B -> 65B        0.69452
     55B -> 65B        0.11484
     56B -> 65B       -0.14939

 Excited State  22:  2.028-A      5.3281 eV  232.70 nm  f=0.0004  <S**2>=0.779
     48B -> 65B        0.27291
     49B -> 65B       -0.28381
     50B -> 65B        0.20969
     51B -> 65B        0.18611
     52B -> 65B        0.82989
     57B -> 65B       -0.17491

 Excited State  23:  2.010-A      5.3572 eV  231.44 nm  f=0.0026  <S**2>=0.760
     62A -> 66A       -0.12972
     62A -> 68A       -0.17855
     63A -> 66A        0.25674
     63A -> 67A       -0.25517
     64A -> 68A        0.12355
     64A -> 69A       -0.21578
     65A -> 66A       -0.29805
     65A -> 67A       -0.35097
     61B -> 67B       -0.11341
     61B -> 68B       -0.17894
     62B -> 66B        0.10573
     62B -> 67B        0.16045
     62B -> 68B        0.12733
     62B -> 69B       -0.17683
     63B -> 66B        0.11579
     63B -> 67B        0.32916
     64B -> 66B        0.45560
     64B -> 67B       -0.17493

 Excited State  24:  2.017-A      5.4174 eV  228.86 nm  f=0.0003  <S**2>=0.767
     62A -> 66A        0.25766
     63A -> 68A       -0.24491
     63A -> 69A        0.11194
     64A -> 67A        0.40351
     65A -> 68A        0.24836
     65A -> 69A        0.21966
     61B -> 66B       -0.14086
     61B -> 67B        0.25260
     62B -> 66B       -0.35410
     62B -> 67B       -0.20228
     63B -> 66B        0.15305
     63B -> 68B       -0.31512
     63B -> 69B        0.10740
     64B -> 68B        0.21178
     64B -> 69B        0.31115

 Excited State  25:  2.023-A      5.4348 eV  228.13 nm  f=0.0036  <S**2>=0.773
     48B -> 65B        0.21202
     49B -> 65B       -0.13107
     50B -> 65B        0.19389
     51B -> 65B        0.60540
     52B -> 65B       -0.34708
     53B -> 65B        0.58647
     54B -> 65B        0.14405
     57B -> 65B       -0.10081

 Excited State  26:  2.021-A      5.6434 eV  219.70 nm  f=0.0011  <S**2>=0.771
     48B -> 65B        0.47481
     49B -> 65B        0.70953
     50B -> 65B        0.35882
     51B -> 65B       -0.23913
     54B -> 65B        0.16365

 Excited State  27:  2.023-A      5.7059 eV  217.29 nm  f=0.0068  <S**2>=0.773
     48B -> 65B       -0.56047
     50B -> 65B        0.80021

 Excited State  28:  2.048-A      5.7795 eV  214.52 nm  f=0.0010  <S**2>=0.798
     62A -> 66A       -0.15450
     63A -> 66A        0.20957
     64A -> 66A       -0.25083
     65A -> 66A        0.56104
     65A -> 67A       -0.29083
     65A -> 68A        0.11802
     63B -> 66B       -0.16572
     63B -> 67B        0.14256
     64B -> 66B        0.18150
     64B -> 67B        0.55492

 Excited State  29:  3.166-A      5.7993 eV  213.79 nm  f=0.0024  <S**2>=2.255
     62A -> 66A        0.22150
     63A -> 68A       -0.17226
     64A -> 66A        0.60730
     64A -> 68A        0.14534
     65A -> 66A       -0.22605
     65A -> 68A       -0.26190
     61B -> 67B       -0.14328
     62B -> 68B       -0.10453
     63B -> 66B       -0.10321
     63B -> 67B        0.16186
     64B -> 67B        0.45042
     64B -> 68B        0.22727

 Excited State  30:  2.421-A      5.8874 eV  210.59 nm  f=0.0147  <S**2>=1.215
     62A -> 68A       -0.11455
     63A -> 68A       -0.20350
     64A -> 66A        0.33912
     64A -> 68A       -0.23372
     65A -> 66A        0.21158
     65A -> 67A       -0.33775
     65A -> 68A       -0.12453
     65A -> 69A       -0.10746
     61B -> 67B        0.22542
     62B -> 66B       -0.17622
     62B -> 67B        0.38271
     62B -> 68B        0.12213
     63B -> 67B       -0.34504
     63B -> 68B       -0.15704
     64B -> 66B        0.23300
     64B -> 67B       -0.11581
     64B -> 68B       -0.25193

 Excited State  31:  2.803-A      5.9203 eV  209.42 nm  f=0.0076  <S**2>=1.715
     62A -> 67A        0.11100
     62A -> 68A        0.14031
     63A -> 66A       -0.35803
     63A -> 67A        0.18850
     63A -> 68A        0.26177
     64A -> 66A       -0.10162
     64A -> 67A        0.10408
     64A -> 68A        0.66425
     65A -> 66A       -0.14850
     65A -> 67A       -0.17849
     63B -> 66B       -0.12550
     63B -> 68B       -0.10189
     64B -> 66B        0.18391
     64B -> 68B       -0.23525

 Excited State  32:  3.218-A      5.9769 eV  207.44 nm  f=0.0020  <S**2>=2.338
     62A -> 67A       -0.21952
     63A -> 68A       -0.11627
     63A -> 69A        0.22254
     64A -> 67A       -0.46363
     64A -> 68A        0.10271
     64A -> 69A       -0.15445
     65A -> 67A        0.20870
     65A -> 69A        0.53024
     61B -> 66B       -0.21818
     61B -> 69B        0.10335
     62B -> 66B       -0.11387
     62B -> 69B        0.13212
     63B -> 67B       -0.12799
     63B -> 69B       -0.12457
     64B -> 66B        0.25398
     64B -> 69B       -0.25370

 Excited State  33:  2.347-A      5.9800 eV  207.33 nm  f=0.0169  <S**2>=1.127
     62A -> 66A       -0.23659
     63A -> 66A       -0.31797
     63A -> 67A       -0.14091
     64A -> 67A        0.11097
     65A -> 68A        0.19211
     65A -> 69A       -0.16965
     61B -> 67B       -0.25132
     62B -> 66B       -0.15866
     62B -> 67B       -0.26824
     62B -> 68B        0.31902
     63B -> 66B        0.22758
     63B -> 67B       -0.24696
     63B -> 68B        0.15249
     64B -> 66B        0.14467
     64B -> 68B        0.39009
     64B -> 69B       -0.29685

 Excited State  34:  2.581-A      5.9925 eV  206.90 nm  f=0.0253  <S**2>=1.416
     62A -> 66A        0.44822
     62A -> 67A        0.12716
     62A -> 68A        0.14049
     63A -> 66A        0.27521
     63A -> 67A        0.11540
     63A -> 68A        0.16506
     64A -> 66A       -0.27552
     64A -> 68A       -0.12231
     64A -> 69A        0.12382
     65A -> 66A       -0.22746
     65A -> 67A       -0.19449
     65A -> 68A       -0.33806
     61B -> 66B       -0.20100
     62B -> 67B       -0.32191
     62B -> 68B        0.24654
     63B -> 66B       -0.14763
     64B -> 66B        0.18593

 Excited State  35:  2.568-A      6.0105 eV  206.28 nm  f=0.0067  <S**2>=1.399
     62A -> 68A       -0.12411
     63A -> 66A       -0.17314
     63A -> 67A        0.16883
     63A -> 68A       -0.21500
     63A -> 69A        0.12629
     64A -> 67A       -0.25855
     64A -> 68A        0.14646
     65A -> 67A       -0.14569
     65A -> 69A        0.16001
     61B -> 68B        0.14694
     62B -> 66B        0.25174
     62B -> 67B       -0.24616
     62B -> 68B        0.41922
     62B -> 69B       -0.15601
     63B -> 66B       -0.38096
     63B -> 69B        0.14417
     64B -> 66B       -0.10713
     64B -> 67B       -0.13491
     64B -> 69B        0.34511

 Excited State  36:  3.039-A      6.0267 eV  205.72 nm  f=0.0041  <S**2>=2.059
     62A -> 66A       -0.13392
     62A -> 68A       -0.11352
     63A -> 66A       -0.18750
     63A -> 68A       -0.18535
     64A -> 69A        0.11102
     61B -> 66B       -0.20917
     61B -> 67B        0.40862
     61B -> 68B        0.18019
     62B -> 67B       -0.23376
     62B -> 68B       -0.15582
     63B -> 67B        0.50682
     63B -> 68B        0.38273
     63B -> 69B       -0.11409
     64B -> 66B        0.10217
     64B -> 67B       -0.13100
     64B -> 68B       -0.23676
     64B -> 69B       -0.12739

 The electronic state is 2-A.
 Alpha  occ. eigenvalues --  -19.18871 -19.14768 -10.25126 -10.24463 -10.20709
 Alpha  occ. eigenvalues --  -10.20268 -10.19550 -10.19484 -10.19417 -10.19399
 Alpha  occ. eigenvalues --  -10.19351 -10.19318 -10.19158 -10.19120 -10.19083
 Alpha  occ. eigenvalues --  -10.19040 -10.18845 -10.17634  -1.05125  -1.00417
 Alpha  occ. eigenvalues --   -0.86455  -0.85458  -0.81867  -0.75756  -0.74938
 Alpha  occ. eigenvalues --   -0.74577  -0.73545  -0.72953  -0.66312  -0.62418
 Alpha  occ. eigenvalues --   -0.60856  -0.60272  -0.60032  -0.55649  -0.53467
 Alpha  occ. eigenvalues --   -0.50978  -0.50407  -0.48048  -0.47250  -0.45853
 Alpha  occ. eigenvalues --   -0.45015  -0.44777  -0.44490  -0.42652  -0.42435
 Alpha  occ. eigenvalues --   -0.41707  -0.41302  -0.40458  -0.39091  -0.38318
 Alpha  occ. eigenvalues --   -0.37292  -0.36775  -0.36489  -0.36366  -0.34887
 Alpha  occ. eigenvalues --   -0.34430  -0.33616  -0.33420  -0.30545  -0.29916
 Alpha  occ. eigenvalues --   -0.27903  -0.25845  -0.25088  -0.24712  -0.24524
 Alpha virt. eigenvalues --   -0.01184  -0.01122  -0.00510   0.00257   0.08621
 Alpha virt. eigenvalues --    0.08951   0.09899   0.12328   0.12566   0.12806
 Alpha virt. eigenvalues --    0.13645   0.14287   0.15235   0.15368   0.15597

  Beta  occ. eigenvalues --  -19.16773 -19.14768 -10.25143 -10.24445 -10.20671
  Beta  occ. eigenvalues --  -10.20273 -10.19480 -10.19409 -10.19388 -10.19350
  Beta  occ. eigenvalues --  -10.19317 -10.19275 -10.19157 -10.19118 -10.19083
  Beta  occ. eigenvalues --  -10.19040 -10.18842 -10.17606  -1.03706  -0.97628
  Beta  occ. eigenvalues --   -0.86150  -0.85427  -0.81097  -0.75504  -0.74872
  Beta  occ. eigenvalues --   -0.74547  -0.73359  -0.72396  -0.66015  -0.62220
  Beta  occ. eigenvalues --   -0.60814  -0.60184  -0.60017  -0.55515  -0.53359
  Beta  occ. eigenvalues --   -0.50846  -0.49339  -0.47793  -0.46635  -0.45078
  Beta  occ. eigenvalues --   -0.44912  -0.44435  -0.44304  -0.42438  -0.42250
  Beta  occ. eigenvalues --   -0.41523  -0.40991  -0.39670  -0.38755  -0.38159
  Beta  occ. eigenvalues --   -0.36962  -0.36732  -0.36312  -0.35486  -0.34357
  Beta  occ. eigenvalues --   -0.34059  -0.33450  -0.32150  -0.28554  -0.27768
  Beta  occ. eigenvalues --   -0.25870  -0.25096  -0.24956  -0.24412
  Beta virt. eigenvalues --   -0.14152  -0.01102  -0.01062  -0.00469   0.00277
  Beta virt. eigenvalues --    0.08697   0.08996   0.10175   0.12658   0.12813
  Beta virt. eigenvalues --    0.12927   0.13716   0.14374   0.15346   0.15435

 Mulliken charges and spin densities:
               1          2
     1  C    0.224460  -0.027742
     2  C    0.256307   0.006814
     3  O   -0.411609   0.824099
     4  C   -0.319621   0.118814
     5  H    0.130457  -0.004073
     6  H    0.141751   0.030505
     7  H    0.136023  -0.004052
     8  C   -0.334684   0.025483
     9  H    0.120790  -0.000737
    10  H    0.112256  -0.002330
    11  H    0.114320  -0.001854
    12  C    0.078393   0.017959
    13  C   -0.113901   0.012727
    14  C   -0.116450   0.004879
    15  C   -0.106520  -0.005214
    16  H    0.107006  -0.000998
    17  C   -0.110522  -0.002771
    18  H    0.106374  -0.000278
    19  C   -0.094491   0.008663
    20  H    0.105582   0.000538
    21  H    0.105807   0.000070
    22  H    0.104791  -0.000383
    23  C    0.061550  -0.002410
    24  C   -0.110525   0.002374
    25  C   -0.122697   0.001658
    26  C   -0.107462  -0.001360
    27  H    0.110268  -0.000121
    28  C   -0.112618  -0.001145
    29  H    0.104917  -0.000054
    30  C   -0.095587   0.002553
    31  H    0.101569   0.000012
    32  H    0.102835   0.000033
    33  H    0.101715  -0.000110
    34  O   -0.589870   0.000743
    35  H    0.319384  -0.002291
 Sum of Mulliken charges =  -0.00000   1.00000

 Dipole moment (field-independent basis, Debye):
    X=              0.6594    Y=              2.3185    Z=              0.1279  Tot=              2.4139
 Quadrupole moment (field-independent basis, Debye-Ang):
   XX=           -101.5636   YY=           -100.5155   ZZ=           -103.2793
   XY=              0.8100   XZ=             -6.4031   YZ=              1.1988

 Normal termination of Gaussian 16 at Sat May 25 04:46:54 2019.
