 Gaussian 16, Revision B.01,
 Gaussian 16:  ES64L-G16RevB.01 20-Dec-2017

 ----------------------------------------------------------------------
 #p td=(50-50,nstates=36) ub3lyp/6-31g(d,p) scrf=(iefpcm,solvent=aceton
 itrile) guess=(mix,always) empiricaldispersion=gd3
 ----------------------------------------------------------------------

 -------------------
 Title Card Required
 -------------------
 Symbolic Z-matrix:
 Charge =  0 Multiplicity = 2

                         Standard orientation:
 ---------------------------------------------------------------------
 Center     Atomic      Atomic             Coordinates (Angstroms)
 Number     Number       Type             X           Y           Z
 ---------------------------------------------------------------------
      1          6           0       -1.152207   -1.446780   -0.963305
      2          6           0        0.776542   -1.287874    1.060226
      3          8           0       -1.553859   -2.470187   -0.394128
      4          6           0       -0.169035   -1.552137   -2.108386
      5          1           0       -0.649967   -1.218691   -3.034729
      6          1           0        0.710980   -0.924404   -1.949928
      7          1           0        0.144617   -2.590486   -2.213538
      8          6           0       -0.238191   -1.202705    2.154933
      9          1           0       -0.629958   -0.194486    2.285773
     10          1           0       -1.083772   -1.860046    1.927906
     11          1           0        0.195722   -1.533629    3.108662
     12          6           0       -1.703678   -0.110221   -0.604732
     13          6           0       -2.793672   -0.044407    0.281101
     14          6           0       -1.161497    1.083981   -1.108706
     15          6           0       -3.324573    1.184530    0.659680
     16          1           0       -3.208313   -0.971656    0.660611
     17          6           0       -1.690719    2.314901   -0.724259
     18          1           0       -0.313650    1.059491   -1.783261
     19          6           0       -2.771531    2.368721    0.159385
     20          1           0       -4.167504    1.223902    1.342931
     21          1           0       -1.255553    3.231760   -1.109494
     22          1           0       -3.182277    3.328758    0.457372
     23          6           0        1.627910   -0.232383    0.628562
     24          6           0        2.666340   -0.476331   -0.317788
     25          6           0        1.457988    1.106988    1.081006
     26          6           0        3.466437    0.557662   -0.784481
     27          1           0        2.821823   -1.488600   -0.671840
     28          6           0        2.265818    2.130105    0.604356
     29          1           0        0.681164    1.341063    1.799449
     30          6           0        3.276007    1.870700   -0.332178
     31          1           0        4.248777    0.342091   -1.506994
     32          1           0        2.107185    3.143284    0.962839
     33          1           0        3.903154    2.676112   -0.701332
     34          8           0        1.083175   -2.543460    0.617242
     35          1           0        0.251399   -3.043795    0.528165
 ---------------------------------------------------------------------

 SCF Done:  E(UB3LYP) =  -770.429443597     A.U. after   20 cycles

 Excitation energies and oscillator strengths:

 Excited State   1:  2.036-A      2.0384 eV  608.24 nm  f=0.1011  <S**2>=0.787
     65A -> 66A        0.99622
 This state for optimization and/or second-order correction.
 Total Energy, E(TD-HF/TD-DFT) =  -770.354533475
 Copying the excited state density for this state as the 1-particle RhoCI density.

 Excited State   2:  2.071-A      3.0522 eV  406.22 nm  f=0.0013  <S**2>=0.822
     65A -> 67A        0.54470
     65A -> 68A        0.73253
     64B -> 65B        0.32937
     64B -> 66B        0.14227

 Excited State   3:  3.012-A      3.2246 eV  384.50 nm  f=0.0018  <S**2>=2.018
     63A -> 66A        0.40919
     62B -> 65B        0.67114
     62B -> 66B       -0.31454
     62B -> 69B        0.10682
     63B -> 65B       -0.40669
     63B -> 66B        0.12157

 Excited State   4:  2.385-A      3.2836 eV  377.58 nm  f=0.0059  <S**2>=1.172
     60A -> 66A        0.12888
     62A -> 66A       -0.15800
     65A -> 67A        0.30821
     65A -> 68A       -0.18719
     65A -> 69A        0.40633
     65A -> 70A       -0.17277
     60B -> 66B        0.18833
     62B -> 65B        0.34350
     63B -> 65B        0.55380
     63B -> 66B        0.12422
     64B -> 65B       -0.26521

 Excited State   5:  2.953-A      3.3294 eV  372.39 nm  f=0.0018  <S**2>=1.930
     60A -> 66A       -0.11485
     61A -> 67A        0.13835
     62A -> 66A        0.37757
     63A -> 66A        0.17384
     64A -> 66A       -0.10594
     65A -> 67A        0.33742
     65A -> 68A       -0.27102
     65A -> 69A        0.21794
     60B -> 65B        0.33549
     60B -> 66B       -0.10231
     61B -> 65B        0.42340
     61B -> 66B       -0.19990
     61B -> 67B        0.15551
     62B -> 65B       -0.19324
     62B -> 66B        0.10113
     63B -> 66B        0.22083

 Excited State   6:  2.216-A      3.4152 eV  363.03 nm  f=0.0000  <S**2>=0.977
     62A -> 66A       -0.11530
     63A -> 66A       -0.12536
     65A -> 67A        0.68007
     65A -> 68A       -0.36318
     65A -> 69A       -0.34329
     60B -> 65B       -0.25390
     63B -> 65B       -0.23028
     63B -> 66B       -0.20167
     64B -> 65B       -0.19853

 Excited State   7:  2.292-A      3.6714 eV  337.70 nm  f=0.0115  <S**2>=1.063
     61A -> 66A        0.17180
     62A -> 66A       -0.10147
     65A -> 68A       -0.42702
     61B -> 65B       -0.17872
     61B -> 66B        0.11707
     64B -> 65B        0.82898

 Excited State   8:  2.538-A      3.8142 eV  325.06 nm  f=0.0008  <S**2>=1.360
     61A -> 66A       -0.11427
     62A -> 66A       -0.47113
     63A -> 66A        0.59735
     63A -> 70A        0.11130
     64A -> 66A        0.35959
     60B -> 65B       -0.13775
     61B -> 65B        0.32966
     62B -> 65B       -0.27245
     63B -> 65B        0.13807

 Excited State   9:  2.771-A      3.8498 eV  322.05 nm  f=0.0016  <S**2>=1.670
     61A -> 66A       -0.21776
     62A -> 66A        0.28492
     63A -> 66A       -0.31221
     64A -> 66A        0.27409
     65A -> 67A       -0.12589
     65A -> 68A       -0.12451
     60B -> 65B       -0.36262
     61B -> 65B        0.50428
     61B -> 66B       -0.13355
     62B -> 65B        0.34445
     63B -> 65B        0.13015
     64B -> 65B        0.14597
     64B -> 66B        0.23411

 Excited State  10:  2.385-A      4.2059 eV  294.78 nm  f=0.0864  <S**2>=1.172
     61A -> 67A       -0.18834
     62A -> 66A       -0.16913
     63A -> 66A       -0.20150
     64A -> 66A        0.21976
     64A -> 67A        0.15584
     65A -> 69A        0.61010
     60B -> 65B        0.11223
     60B -> 66B        0.12184
     60B -> 67B        0.13335
     61B -> 67B       -0.17465
     63B -> 65B       -0.52278
     64B -> 68B       -0.12802

 Excited State  11:  3.310-A      4.3328 eV  286.15 nm  f=0.0078  <S**2>=2.489
     60A -> 68A       -0.10323
     61A -> 68A        0.33332
     62A -> 67A        0.10178
     64A -> 67A        0.37135
     64A -> 68A        0.31212
     65A -> 69A       -0.24225
     60B -> 68B       -0.12782
     61B -> 65B        0.15863
     61B -> 67B       -0.17863
     61B -> 68B        0.15608
     62B -> 68B        0.11327
     63B -> 65B       -0.19003
     63B -> 68B        0.11385
     64B -> 67B        0.29341
     64B -> 68B        0.46555

 Excited State  12:  2.887-A      4.3873 eV  282.60 nm  f=0.0113  <S**2>=1.834
     61A -> 66A        0.21458
     61A -> 67A       -0.28753
     64A -> 66A       -0.38905
     64A -> 68A       -0.30688
     65A -> 69A       -0.15774
     60B -> 65B        0.25490
     61B -> 65B        0.43537
     61B -> 67B       -0.29393
     62B -> 65B        0.18573
     63B -> 65B        0.11596
     63B -> 66B       -0.17506
     64B -> 68B       -0.27729

 Excited State  13:  2.657-A      4.4396 eV  279.27 nm  f=0.0423  <S**2>=1.514
     61A -> 66A       -0.28608
     61A -> 67A       -0.19529
     62A -> 66A        0.33507
     63A -> 66A        0.12344
     64A -> 66A        0.39632
     64A -> 67A        0.10128
     64A -> 68A       -0.13966
     65A -> 69A       -0.24430
     65A -> 70A       -0.19352
     60B -> 65B        0.46988
     60B -> 67B        0.18669
     61B -> 65B       -0.28737
     61B -> 66B       -0.13494
     61B -> 67B       -0.10071
     63B -> 67B       -0.11950
     64B -> 66B        0.12230
     64B -> 67B        0.11775
     64B -> 68B       -0.11442

 Excited State  14:  2.187-A      4.5416 eV  273.00 nm  f=0.0334  <S**2>=0.946
     65A -> 70A        0.89793
     60B -> 65B        0.20254
     60B -> 66B       -0.14679
     63B -> 65B        0.22668
     63B -> 66B       -0.12208

 Excited State  15:  2.814-A      4.6057 eV  269.20 nm  f=0.0522  <S**2>=1.730
     61A -> 67A        0.19482
     62A -> 66A       -0.27116
     63A -> 66A       -0.24347
     64A -> 66A        0.20227
     64A -> 67A       -0.13668
     64A -> 68A        0.13408
     65A -> 69A       -0.15156
     65A -> 70A       -0.10458
     60B -> 65B        0.49312
     60B -> 66B        0.10974
     60B -> 67B       -0.12108
     61B -> 65B        0.17405
     61B -> 66B        0.16185
     61B -> 67B        0.26561
     62B -> 65B        0.15136
     62B -> 66B        0.19259
     63B -> 66B       -0.41321
     64B -> 67B       -0.11916
     64B -> 68B        0.14152

 Excited State  16:  3.183-A      4.6722 eV  265.37 nm  f=0.0006  <S**2>=2.283
     61A -> 66A        0.53021
     62A -> 66A        0.10464
     64A -> 66A        0.19331
     61B -> 66B        0.24404
     62B -> 65B       -0.18371
     62B -> 66B       -0.21683
     63B -> 66B        0.24261
     64B -> 65B       -0.16762
     64B -> 66B        0.61904

 Excited State  17:  2.643-A      4.7070 eV  263.41 nm  f=0.0026  <S**2>=1.496
     61A -> 66A        0.33882
     62A -> 66A        0.12748
     63A -> 66A        0.14381
     64A -> 66A        0.24086
     60B -> 65B       -0.14771
     61B -> 65B       -0.13103
     61B -> 66B       -0.15256
     62B -> 65B        0.25843
     62B -> 66B        0.77522
     64B -> 65B       -0.10461

 Excited State  18:  2.173-A      4.7867 eV  259.02 nm  f=0.0169  <S**2>=0.930
     61A -> 66A       -0.33969
     62A -> 66A       -0.15431
     64A -> 66A       -0.46069
     61B -> 65B       -0.14702
     61B -> 66B       -0.22414
     62B -> 66B        0.26306
     64B -> 66B        0.66804

 Excited State  19:  3.129-A      4.9595 eV  249.99 nm  f=0.0611  <S**2>=2.198
     60A -> 66A        0.58836
     61A -> 66A       -0.10784
     61A -> 68A       -0.10358
     64A -> 66A       -0.11484
     64A -> 67A       -0.11490
     64A -> 68A       -0.12955
     65A -> 69A       -0.16690
     65A -> 70A        0.23843
     60B -> 66B        0.36339
     61B -> 66B        0.23935
     61B -> 67B        0.10577
     62B -> 66B        0.16328
     63B -> 66B        0.43315

 Excited State  20:  2.428-A      5.0382 eV  246.09 nm  f=0.0332  <S**2>=1.223
     60A -> 66A       -0.26609
     61A -> 66A       -0.41067
     62A -> 67A        0.22798
     63A -> 67A        0.22479
     60B -> 66B       -0.38425
     61B -> 66B        0.56198
     62B -> 66B        0.20755
     63B -> 66B        0.23028

 Excited State  21:  2.127-A      5.1246 eV  241.94 nm  f=0.1567  <S**2>=0.881
     60A -> 66A       -0.31342
     62A -> 66A       -0.34230
     63A -> 66A       -0.28069
     65A -> 69A       -0.18359
     59B -> 65B       -0.44072
     59B -> 66B       -0.11266
     60B -> 65B        0.11158
     61B -> 66B       -0.34737
     63B -> 66B        0.48712

 Excited State  22:  3.404-A      5.1631 eV  240.14 nm  f=0.0029  <S**2>=2.647
     60A -> 66A        0.12884
     60A -> 67A       -0.17733
     62A -> 67A        0.36012
     62A -> 68A       -0.12284
     63A -> 67A        0.37713
     63A -> 68A       -0.12854
     64A -> 67A       -0.13360
     60B -> 66B        0.14067
     60B -> 67B       -0.36267
     61B -> 66B       -0.26477
     61B -> 67B       -0.30568
     63B -> 67B        0.46261
     64B -> 67B       -0.15511

 Excited State  23:  2.089-A      5.2057 eV  238.17 nm  f=0.0608  <S**2>=0.841
     60A -> 66A       -0.13738
     62A -> 66A       -0.19446
     63A -> 66A       -0.17113
     65A -> 69A       -0.16652
     59B -> 65B        0.83688
     59B -> 66B        0.18858
     60B -> 65B        0.10719
     61B -> 66B       -0.19332
     63B -> 66B        0.22447

 Excited State  24:  3.062-A      5.3488 eV  231.80 nm  f=0.0179  <S**2>=2.095
     53A -> 66A        0.13033
     55A -> 66A        0.16117
     56A -> 66A        0.34012
     57A -> 66A       -0.17052
     60A -> 66A       -0.35732
     62A -> 69A        0.10234
     62A -> 70A        0.15259
     63A -> 69A        0.10124
     63A -> 70A        0.14557
     53B -> 65B        0.15089
     53B -> 66B       -0.10243
     55B -> 65B        0.19443
     55B -> 66B       -0.11575
     57B -> 65B        0.43040
     57B -> 66B       -0.20971
     58B -> 65B       -0.13149
     60B -> 66B        0.23869
     60B -> 69B        0.11304
     61B -> 69B        0.11340
     63B -> 69B       -0.13281

 Excited State  25:  2.354-A      5.3846 eV  230.26 nm  f=0.0634  <S**2>=1.135
     56A -> 66A       -0.18722
     57A -> 66A        0.10589
     60A -> 66A       -0.46416
     62A -> 66A        0.17400
     63A -> 66A        0.15067
     65A -> 70A        0.10030
     57B -> 65B       -0.18442
     57B -> 66B        0.10729
     60B -> 66B        0.64417
     61B -> 66B        0.21247
     61B -> 67B       -0.11541
     63B -> 67B        0.10836

 Excited State  26:  3.404-A      5.4843 eV  226.07 nm  f=0.0022  <S**2>=2.647
     60A -> 67A        0.20574
     60A -> 68A        0.35036
     61A -> 67A        0.11189
     61A -> 68A        0.16077
     61A -> 69A        0.10152
     62A -> 68A        0.22586
     63A -> 68A        0.21524
     64A -> 68A       -0.12117
     64A -> 69A        0.15619
     60B -> 67B        0.16041
     60B -> 68B        0.28643
     62B -> 68B        0.13543
     63B -> 67B        0.20993
     63B -> 68B        0.61821
     64B -> 68B       -0.13289

 Excited State  27:  2.045-A      5.6614 eV  219.00 nm  f=0.0001  <S**2>=0.795
     65A -> 71A        0.94315
     65A -> 72A        0.26233
     65A -> 73A       -0.13433

 Excited State  28:  3.447-A      5.8478 eV  212.02 nm  f=0.0003  <S**2>=2.721
     62A -> 67A        0.38784
     63A -> 67A       -0.43377
     63A -> 68A        0.11060
     64A -> 67A       -0.14344
     61B -> 67B       -0.30214
     62B -> 67B        0.63486
     63B -> 67B       -0.16526
     64B -> 67B       -0.25743

 Excited State  29:  2.184-A      5.8650 eV  211.40 nm  f=0.0004  <S**2>=0.942
     60A -> 69A       -0.12031
     57B -> 65B        0.13201
     58B -> 65B        0.89686
     58B -> 66B        0.26615

 Excited State  30:  2.087-A      5.8707 eV  211.19 nm  f=0.0041  <S**2>=0.839
     62A -> 67A       -0.41238
     62A -> 68A        0.10195
     63A -> 67A        0.56433
     63A -> 68A       -0.13550
     64A -> 67A        0.25534
     58B -> 65B       -0.11160
     61B -> 67B       -0.21070
     62B -> 67B        0.46737
     63B -> 67B       -0.18487
     64B -> 67B       -0.28973

 Excited State  31:  2.597-A      5.9458 eV  208.52 nm  f=0.0239  <S**2>=1.436
     63A -> 67A        0.14883
     64A -> 67A       -0.19008
     60B -> 67B       -0.15626
     62B -> 67B        0.47646
     63B -> 67B        0.11545
     64B -> 67B        0.77990
     64B -> 68B       -0.15222

 Excited State  32:  2.915-A      6.0127 eV  206.20 nm  f=0.0125  <S**2>=1.874
     60A -> 67A        0.10227
     60A -> 69A        0.36892
     60A -> 70A       -0.13810
     61A -> 69A        0.17345
     62A -> 67A        0.12337
     62A -> 69A        0.17451
     63A -> 67A        0.11257
     63A -> 69A        0.18824
     64A -> 67A       -0.11408
     64A -> 69A       -0.17711
     65A -> 78A       -0.12133
     53B -> 65B       -0.24193
     55B -> 65B       -0.10390
     56B -> 65B       -0.13981
     57B -> 65B        0.33663
     57B -> 66B        0.14746
     58B -> 65B        0.18402
     60B -> 66B       -0.11825
     60B -> 69B       -0.14170
     60B -> 70B        0.16503
     63B -> 66B       -0.11146
     63B -> 67B       -0.17914
     63B -> 69B       -0.21577
     63B -> 70B        0.32942

 Excited State  33:  2.682-A      6.0341 eV  205.47 nm  f=0.0499  <S**2>=1.548
     60A -> 68A       -0.13225
     61A -> 66A       -0.11447
     61A -> 67A        0.10925
     61A -> 68A       -0.21098
     61A -> 69A        0.14119
     61A -> 70A       -0.13356
     62A -> 67A       -0.14924
     62A -> 68A       -0.17082
     62A -> 69A        0.13794
     63A -> 67A       -0.27838
     63A -> 68A       -0.15798
     64A -> 67A        0.40252
     64A -> 69A        0.28020
     62B -> 67B        0.17886
     63B -> 67B        0.54671
     63B -> 70B        0.10846

 Excited State  34:  2.848-A      6.1162 eV  202.71 nm  f=0.0048  <S**2>=1.778
     60A -> 67A        0.16669
     61A -> 67A       -0.26841
     61A -> 68A        0.22011
     61A -> 69A       -0.15426
     62A -> 67A       -0.27948
     62A -> 68A        0.17897
     63A -> 68A        0.13566
     64A -> 67A       -0.33845
     64A -> 69A       -0.27962
     60B -> 67B        0.30114
     60B -> 68B       -0.10418
     63B -> 67B        0.47792
     63B -> 68B       -0.17420
     64B -> 67B       -0.13213
     64B -> 68B        0.11362
     64B -> 69B        0.16484

 Excited State  35:  2.846-A      6.1555 eV  201.42 nm  f=0.0052  <S**2>=1.775
     60A -> 68A        0.13029
     61A -> 67A        0.44095
     61A -> 69A       -0.23641
     62A -> 67A        0.28818
     62A -> 68A        0.12445
     63A -> 68A        0.24426
     64A -> 67A        0.41650
     64A -> 68A       -0.31678
     64A -> 69A       -0.38835
     64A -> 70A        0.12059
     63B -> 67B        0.11860
     63B -> 68B       -0.22541

 Excited State  36:  2.669-A      6.1774 eV  200.71 nm  f=0.0001  <S**2>=1.531
     57A -> 66A       -0.13594
     56B -> 65B        0.81460
     56B -> 66B       -0.28651
     57B -> 65B        0.36969

 The electronic state is 2-A.
 Alpha  occ. eigenvalues --  -19.17652 -19.13949 -10.27984 -10.25241 -10.20069
 Alpha  occ. eigenvalues --  -10.20013 -10.19978 -10.19671 -10.19657 -10.19589
 Alpha  occ. eigenvalues --  -10.19572 -10.19012 -10.18828 -10.18787 -10.18744
 Alpha  occ. eigenvalues --  -10.18716 -10.18324 -10.18192  -1.05989  -1.03423
 Alpha  occ. eigenvalues --   -0.86103  -0.85306  -0.78139  -0.77217  -0.75178
 Alpha  occ. eigenvalues --   -0.74477  -0.72876  -0.72467  -0.64885  -0.62961
 Alpha  occ. eigenvalues --   -0.60747  -0.60046  -0.57392  -0.55199  -0.51985
 Alpha  occ. eigenvalues --   -0.51092  -0.49956  -0.46784  -0.46490  -0.46001
 Alpha  occ. eigenvalues --   -0.45949  -0.44481  -0.44243  -0.42855  -0.42707
 Alpha  occ. eigenvalues --   -0.42268  -0.41715  -0.41411  -0.38883  -0.38865
 Alpha  occ. eigenvalues --   -0.38245  -0.37495  -0.36901  -0.35794  -0.35544
 Alpha  occ. eigenvalues --   -0.34658  -0.34456  -0.33938  -0.32229  -0.27363
 Alpha  occ. eigenvalues --   -0.26095  -0.25784  -0.25529  -0.25083  -0.15724
 Alpha virt. eigenvalues --   -0.05779  -0.00903  -0.00084   0.02232   0.03803
 Alpha virt. eigenvalues --    0.08627   0.09895   0.11471   0.12463   0.13494
 Alpha virt. eigenvalues --    0.13678   0.14980   0.15202   0.15664   0.15978

  Beta  occ. eigenvalues --  -19.17397 -19.13878 -10.27956 -10.24348 -10.20076
  Beta  occ. eigenvalues --  -10.19998 -10.19945 -10.19847 -10.19649 -10.19603
  Beta  occ. eigenvalues --  -10.19580 -10.18937 -10.18910 -10.18739 -10.18474
  Beta  occ. eigenvalues --  -10.18459 -10.18377 -10.18192  -1.05306  -1.03248
  Beta  occ. eigenvalues --   -0.86067  -0.85002  -0.77528  -0.77022  -0.75150
  Beta  occ. eigenvalues --   -0.74213  -0.72794  -0.72182  -0.64034  -0.62882
  Beta  occ. eigenvalues --   -0.60726  -0.59876  -0.57085  -0.55158  -0.51742
  Beta  occ. eigenvalues --   -0.51038  -0.49159  -0.46454  -0.46234  -0.45810
  Beta  occ. eigenvalues --   -0.45472  -0.44463  -0.44159  -0.42684  -0.42605
  Beta  occ. eigenvalues --   -0.41948  -0.41622  -0.41121  -0.38833  -0.38423
  Beta  occ. eigenvalues --   -0.37704  -0.37305  -0.36347  -0.35706  -0.35322
  Beta  occ. eigenvalues --   -0.34492  -0.34268  -0.33555  -0.31587  -0.26509
  Beta  occ. eigenvalues --   -0.25821  -0.25535  -0.24997  -0.24547
  Beta virt. eigenvalues --   -0.08044  -0.04361  -0.00784   0.00478   0.03386
  Beta virt. eigenvalues --    0.05193   0.08791   0.09968   0.11595   0.12518
  Beta virt. eigenvalues --    0.13554   0.13874   0.15025   0.15611   0.15746

 Mulliken charges and spin densities:
               1          2
     1  C    0.385365   0.025094
     2  C    0.236190   0.582864
     3  O   -0.546430   0.026938
     4  C   -0.388666  -0.001961
     5  H    0.141609   0.000256
     6  H    0.144688   0.001902
     7  H    0.125788   0.000122
     8  C   -0.368410  -0.046739
     9  H    0.131029   0.003022
    10  H    0.128962   0.015854
    11  H    0.132923   0.034098
    12  C    0.065784  -0.012744
    13  C   -0.113398   0.023793
    14  C   -0.113352   0.018329
    15  C   -0.101464  -0.011742
    16  H    0.110715  -0.001097
    17  C   -0.106260  -0.011841
    18  H    0.110108  -0.000770
    19  C   -0.089946   0.025809
    20  H    0.108196   0.000410
    21  H    0.108937   0.000426
    22  H    0.110112  -0.001168
    23  C    0.100065  -0.156983
    24  C   -0.141552   0.212612
    25  C   -0.134303   0.206449
    26  C   -0.100617  -0.112437
    27  H    0.104696  -0.009317
    28  C   -0.108742  -0.111492
    29  H    0.095615  -0.009008
    30  C   -0.108881   0.235916
    31  H    0.098299   0.004015
    32  H    0.098556   0.003959
    33  H    0.096704  -0.010900
    34  O   -0.552597   0.068330
    35  H    0.340277   0.008001
 Sum of Mulliken charges =  -0.00000   1.00000

 Dipole moment (field-independent basis, Debye):
    X=             -0.9393    Y=              3.1520    Z=             -0.2597  Tot=              3.2992
 Quadrupole moment (field-independent basis, Debye-Ang):
   XX=           -105.7869   YY=           -102.6848   ZZ=            -99.4990
   XY=             -2.9436   XZ=             -7.7969   YZ=              0.2390

 Normal termination of Gaussian 16 at Sat May 25 04:47:24 2019.
