 Gaussian 16, Revision B.01,
 Gaussian 16:  ES64L-G16RevB.01 20-Dec-2017

 ----------------------------------------------------------------------
 #p td=(50-50,nstates=36) ub3lyp/6-31g(d,p) scrf=(iefpcm,solvent=aceton
 itrile) guess=(mix,always) empiricaldispersion=gd3
 ----------------------------------------------------------------------

 -------------------
 Title Card Required
 -------------------
 Symbolic Z-matrix:
 Charge =  0 Multiplicity = 2

                         Standard orientation:
 ---------------------------------------------------------------------
 Center     Atomic      Atomic             Coordinates (Angstroms)
 Number     Number       Type             X           Y           Z
 ---------------------------------------------------------------------
      1          6           0       -0.586193   -1.282970   -0.505397
      2          6           0        0.612727   -1.272973    0.554081
      3          8           0       -1.199044   -2.500819   -0.378169
      4          6           0        0.003962   -1.337416   -1.958480
      5          1           0       -0.812043   -1.426327   -2.676258
      6          1           0        0.561905   -0.419206   -2.145955
      7          1           0        0.677268   -2.188312   -2.045004
      8          6           0        0.019284   -1.317885    1.974754
      9          1           0       -0.608147   -0.455464    2.202626
     10          1           0       -0.596253   -2.217170    2.073016
     11          1           0        0.833997   -1.367013    2.700676
     12          6           0       -1.569284   -0.120938   -0.346342
     13          6           0       -2.768560   -0.336286    0.347747
     14          6           0       -1.314897    1.158396   -0.860664
     15          6           0       -3.686757    0.697440    0.530288
     16          1           0       -2.978084   -1.325132    0.741794
     17          6           0       -2.232139    2.195005   -0.678649
     18          1           0       -0.395936    1.359658   -1.398388
     19          6           0       -3.420790    1.969561    0.017989
     20          1           0       -4.608725    0.509377    1.072681
     21          1           0       -2.015648    3.178823   -1.084320
     22          1           0       -4.133388    2.776678    0.159309
     23          6           0        1.560951   -0.098917    0.358254
     24          6           0        2.716902   -0.248219   -0.424459
     25          6           0        1.306074    1.153924    0.937111
     26          6           0        3.588639    0.822436   -0.625145
     27          1           0        2.930374   -1.213801   -0.865958
     28          6           0        2.176031    2.225718    0.734989
     29          1           0        0.418429    1.306167    1.539200
     30          6           0        3.321220    2.065396   -0.047746
     31          1           0        4.478426    0.683352   -1.232261
     32          1           0        1.956772    3.186427    1.191340
     33          1           0        3.998718    2.899614   -0.203764
     34          8           0        1.354877   -2.469638    0.343086
     35          1           0        0.682637   -3.157645    0.201944
 ---------------------------------------------------------------------

 SCF Done:  E(UB3LYP) =  -770.377543267     A.U. after   34 cycles

 Excitation energies and oscillator strengths:

 Excited State   1:  2.005-A      -0.1928 eV    -6429.87 nm  f=-0.0003  <S**2>=0.755
     59B -> 65B       -0.16121
     60B -> 65B       -0.59716
     61B -> 65B        0.25125
     64B -> 65B       -0.79118
     60B <- 65B        0.16178
     64B <- 65B        0.27174
 This state for optimization and/or second-order correction.
 Total Energy, E(TD-HF/TD-DFT) =  -770.384629463
 Copying the excited state density for this state as the 1-particle RhoCI density.

 Excited State   2:  2.020-A      1.3745 eV  902.04 nm  f=0.0060  <S**2>=0.770
     59B -> 65B        0.18103
     60B -> 65B        0.49885
     61B -> 65B       -0.38793
     62B -> 65B        0.38740
     63B -> 65B        0.27671
     64B -> 65B       -0.57064

 Excited State   3:  2.024-A      1.5460 eV  801.96 nm  f=0.0097  <S**2>=0.775
     61B -> 65B        0.30189
     63B -> 65B        0.93455
     64B -> 65B        0.15992

 Excited State   4:  2.028-A      1.8210 eV  680.87 nm  f=0.0172  <S**2>=0.779
     60B -> 65B       -0.12599
     61B -> 65B        0.33214
     62B -> 65B        0.90064
     63B -> 65B       -0.11332
     64B -> 65B        0.21241

 Excited State   5:  2.025-A      1.9296 eV  642.54 nm  f=0.0268  <S**2>=0.775
     59B -> 65B        0.23706
     60B -> 65B        0.49971
     61B -> 65B        0.76285
     62B -> 65B       -0.17663
     63B -> 65B       -0.17732
     64B -> 65B       -0.20317

 Excited State   6:  2.025-A      2.2467 eV  551.86 nm  f=0.0016  <S**2>=0.775
     59B -> 65B        0.93309
     60B -> 65B       -0.33872

 Excited State   7:  2.016-A      3.1243 eV  396.83 nm  f=0.0045  <S**2>=0.766
     47B -> 65B       -0.15210
     48B -> 65B       -0.18255
     49B -> 65B       -0.15462
     51B -> 65B        0.17602
     55B -> 65B       -0.10583
     56B -> 65B       -0.14819
     57B -> 65B        0.19349
     58B -> 65B        0.87757

 Excited State   8:  2.055-A      3.5936 eV  345.01 nm  f=0.0085  <S**2>=0.805
     47B -> 65B        0.19213
     48B -> 65B        0.21103
     49B -> 65B        0.24668
     55B -> 65B        0.47616
     56B -> 65B        0.49289
     57B -> 65B       -0.40303
     58B -> 65B        0.39412

 Excited State   9:  3.437-A      3.7455 eV  331.03 nm  f=0.0004  <S**2>=2.703
     61A -> 66A        0.16247
     62A -> 67A        0.20254
     62A -> 69A        0.24608
     63A -> 66A       -0.19297
     63A -> 67A        0.22693
     63A -> 68A        0.13740
     64A -> 66A       -0.27552
     64A -> 67A       -0.18639
     64A -> 68A        0.12479
     64A -> 69A       -0.10228
     65A -> 66A       -0.30559
     65A -> 67A        0.12407
     60B -> 67B       -0.17631
     61B -> 66B        0.22404
     61B -> 67B        0.11999
     61B -> 69B        0.23102
     62B -> 67B       -0.24090
     62B -> 68B        0.12204
     63B -> 66B        0.29608
     63B -> 67B       -0.15250
     63B -> 69B        0.10262
     64B -> 67B        0.35066

 Excited State  10:  3.437-A      3.8018 eV  326.12 nm  f=0.0016  <S**2>=2.703
     61A -> 68A       -0.13969
     62A -> 67A        0.24306
     62A -> 69A       -0.13203
     63A -> 66A       -0.19392
     63A -> 68A       -0.20877
     63A -> 69A        0.19333
     64A -> 67A        0.19061
     64A -> 68A       -0.19882
     64A -> 69A       -0.25014
     65A -> 68A        0.35966
     60B -> 68B        0.18916
     61B -> 66B        0.20916
     62B -> 66B        0.17006
     62B -> 67B       -0.13153
     62B -> 68B       -0.24860
     62B -> 69B       -0.19473
     63B -> 66B       -0.16249
     63B -> 67B       -0.10196
     63B -> 68B       -0.17627
     63B -> 69B        0.26863
     64B -> 68B       -0.32009

 Excited State  11:  2.022-A      3.9402 eV  314.67 nm  f=0.0057  <S**2>=0.773
     48B -> 65B        0.11363
     51B -> 65B       -0.17311
     53B -> 65B        0.13533
     54B -> 65B        0.57939
     55B -> 65B       -0.54523
     56B -> 65B        0.48731
     57B -> 65B        0.12629
     60B -> 65B       -0.13010

 Excited State  12:  2.025-A      4.1104 eV  301.64 nm  f=0.0015  <S**2>=0.776
     50B -> 65B        0.10046
     54B -> 65B       -0.26452
     55B -> 65B        0.28016
     56B -> 65B        0.46047
     57B -> 65B        0.78252

 Excited State  13:  2.027-A      4.1243 eV  300.62 nm  f=0.0015  <S**2>=0.777
     51B -> 65B       -0.21711
     53B -> 65B        0.12901
     54B -> 65B        0.63438
     55B -> 65B        0.51214
     56B -> 65B       -0.39977
     57B -> 65B        0.27446

 Excited State  14:  2.048-A      4.5005 eV  275.49 nm  f=0.0022  <S**2>=0.798
     39B -> 65B       -0.11261
     47B -> 65B       -0.25508
     48B -> 65B       -0.37485
     49B -> 65B       -0.38786
     51B -> 65B        0.48917
     52B -> 65B        0.10847
     54B -> 65B        0.25481
     55B -> 65B        0.27349
     56B -> 65B        0.30565
     57B -> 65B       -0.20856
     58B -> 65B       -0.21441

 Excited State  15:  2.844-A      4.6085 eV  269.03 nm  f=0.0038  <S**2>=1.772
     62A -> 67A        0.21402
     63A -> 68A        0.10875
     63A -> 69A        0.19586
     64A -> 66A        0.22645
     64A -> 68A        0.10128
     64A -> 69A       -0.11276
     65A -> 67A        0.19318
     65A -> 68A       -0.20395
     50B -> 65B        0.11389
     52B -> 65B        0.15634
     53B -> 65B        0.63004
     54B -> 65B       -0.18161
     61B -> 66B        0.16965
     62B -> 69B       -0.18073
     63B -> 66B       -0.10149
     63B -> 67B        0.16370
     63B -> 68B        0.11104
     63B -> 69B        0.11047
     64B -> 66B        0.22808
     64B -> 68B        0.16227

 Excited State  16:  3.201-A      4.6342 eV  267.54 nm  f=0.0007  <S**2>=2.312
     62A -> 67A        0.10862
     62A -> 69A        0.24567
     63A -> 66A        0.12052
     63A -> 67A        0.17025
     63A -> 68A       -0.19763
     64A -> 67A       -0.34445
     64A -> 68A       -0.10345
     65A -> 66A        0.27658
     65A -> 68A        0.14497
     52B -> 65B        0.45277
     60B -> 67B        0.10631
     61B -> 66B        0.13218
     61B -> 69B        0.22566
     62B -> 66B       -0.14350
     62B -> 68B       -0.17929
     63B -> 66B        0.30273
     63B -> 67B        0.16027
     64B -> 66B        0.13087
     64B -> 67B       -0.24694
     64B -> 68B       -0.13802

 Excited State  17:  3.330-A      4.6668 eV  265.67 nm  f=0.0006  <S**2>=2.522
     61A -> 67A       -0.11013
     62A -> 66A       -0.27873
     62A -> 68A        0.13776
     63A -> 66A       -0.19005
     63A -> 67A        0.16968
     63A -> 69A        0.10205
     64A -> 66A        0.22791
     64A -> 67A        0.10713
     64A -> 69A        0.23958
     65A -> 67A        0.32050
     52B -> 65B       -0.10584
     53B -> 65B       -0.29059
     60B -> 66B       -0.15260
     61B -> 67B        0.27295
     62B -> 66B       -0.13247
     62B -> 67B       -0.12676
     62B -> 69B       -0.12365
     63B -> 66B       -0.16788
     63B -> 67B        0.19410
     63B -> 69B       -0.21576
     64B -> 66B        0.34281
     64B -> 67B        0.18232
     64B -> 69B        0.10544

 Excited State  18:  3.139-A      4.7105 eV  263.21 nm  f=0.0001  <S**2>=2.213
     62A -> 66A       -0.19149
     62A -> 68A       -0.14598
     63A -> 67A        0.20102
     63A -> 68A        0.12807
     63A -> 69A       -0.14944
     64A -> 67A        0.17954
     64A -> 68A       -0.28061
     65A -> 66A       -0.15808
     65A -> 67A       -0.14803
     65A -> 69A        0.22640
     48B -> 65B       -0.10889
     51B -> 65B       -0.16136
     52B -> 65B        0.39972
     53B -> 65B        0.19737
     60B -> 69B       -0.11172
     61B -> 67B        0.14970
     61B -> 68B        0.12619
     62B -> 66B       -0.20729
     62B -> 68B        0.16226
     62B -> 69B        0.14027
     63B -> 66B       -0.18115
     63B -> 68B       -0.28074
     64B -> 66B       -0.17540
     64B -> 67B        0.13851
     64B -> 69B        0.21500

 Excited State  19:  3.097-A      4.7350 eV  261.84 nm  f=0.0002  <S**2>=2.148
     62A -> 67A       -0.25289
     62A -> 68A        0.12342
     63A -> 66A       -0.18121
     63A -> 67A       -0.14361
     63A -> 68A       -0.15425
     64A -> 66A       -0.13215
     64A -> 68A        0.21670
     64A -> 69A        0.19616
     65A -> 68A        0.15153
     65A -> 69A       -0.20040
     48B -> 65B       -0.16268
     51B -> 65B       -0.26109
     52B -> 65B        0.33225
     53B -> 65B        0.23139
     61B -> 66B       -0.25383
     62B -> 66B        0.11661
     62B -> 67B       -0.14216
     62B -> 68B       -0.19080
     63B -> 67B       -0.12296
     63B -> 68B        0.20199
     63B -> 69B       -0.21517
     64B -> 67B        0.13177
     64B -> 68B       -0.15487
     64B -> 69B       -0.19143

 Excited State  20:  2.120-A      4.8040 eV  258.09 nm  f=0.0006  <S**2>=0.873
     47B -> 65B        0.17551
     48B -> 65B        0.33705
     49B -> 65B        0.32772
     50B -> 65B       -0.23668
     51B -> 65B        0.67815
     52B -> 65B        0.28986
     53B -> 65B        0.21574
     57B -> 65B        0.14536

 Excited State  21:  2.515-A      4.8632 eV  254.94 nm  f=0.0006  <S**2>=1.332
     63A -> 67A       -0.11148
     64A -> 67A        0.11555
     64A -> 69A       -0.11549
     65A -> 68A       -0.17663
     52B -> 65B        0.60678
     53B -> 65B       -0.54873
     62B -> 66B        0.15409
     62B -> 68B        0.11524
     62B -> 69B       -0.10679
     63B -> 66B       -0.14734
     63B -> 68B        0.11577
     63B -> 69B        0.14764
     64B -> 68B        0.19151

 Excited State  22:  2.033-A      4.9661 eV  249.66 nm  f=0.0002  <S**2>=0.783
     47B -> 65B       -0.10536
     48B -> 65B       -0.11775
     49B -> 65B        0.46015
     50B -> 65B        0.81512
     51B -> 65B        0.20397
     54B -> 65B        0.13399

 Excited State  23:  3.453-A      5.0259 eV  246.69 nm  f=0.0001  <S**2>=2.730
     62A -> 66A        0.21217
     62A -> 67A       -0.11642
     62A -> 68A       -0.21409
     63A -> 66A        0.19500
     63A -> 69A        0.11768
     64A -> 66A       -0.32300
     64A -> 67A        0.15539
     64A -> 68A       -0.11020
     64A -> 69A        0.14484
     65A -> 66A        0.16407
     65A -> 67A        0.30750
     61B -> 67B       -0.27488
     61B -> 68B        0.16874
     62B -> 68B        0.12204
     62B -> 69B       -0.10446
     63B -> 67B       -0.37623
     63B -> 68B       -0.12853
     63B -> 69B       -0.11774
     64B -> 66B        0.44123

 Excited State  24:  2.050-A      5.0655 eV  244.76 nm  f=0.0003  <S**2>=0.801
     47B -> 65B       -0.17895
     48B -> 65B       -0.56752
     49B -> 65B        0.62933
     50B -> 65B       -0.44305
     55B -> 65B       -0.12331

 Excited State  25:  3.421-A      5.0967 eV  243.26 nm  f=0.0000  <S**2>=2.676
     62A -> 66A        0.24031
     62A -> 68A        0.17298
     63A -> 67A        0.26525
     63A -> 68A       -0.23274
     64A -> 67A        0.25115
     64A -> 68A        0.36001
     65A -> 67A       -0.16429
     65A -> 69A        0.33405
     60B -> 69B       -0.10520
     61B -> 66B        0.10689
     61B -> 67B       -0.19288
     61B -> 68B       -0.11234
     62B -> 66B       -0.24955
     62B -> 68B       -0.17893
     63B -> 66B       -0.16035
     63B -> 67B       -0.10133
     63B -> 68B        0.31671
     64B -> 69B        0.30541

 Excited State  26:  2.046-A      5.2564 eV  235.88 nm  f=0.0016  <S**2>=0.797
     62A -> 66A       -0.16126
     62A -> 68A        0.14482
     63A -> 66A       -0.16170
     63A -> 69A       -0.14317
     64A -> 66A        0.24279
     64A -> 67A       -0.16662
     64A -> 69A       -0.12296
     65A -> 66A       -0.23690
     65A -> 67A       -0.50297
     61B -> 67B       -0.15954
     61B -> 68B        0.12116
     63B -> 67B       -0.27426
     63B -> 68B       -0.12769
     64B -> 66B        0.54979

 Excited State  27:  2.049-A      5.3748 eV  230.68 nm  f=0.0068  <S**2>=0.799
     62A -> 66A       -0.19711
     63A -> 66A       -0.11725
     63A -> 67A       -0.19265
     63A -> 68A        0.17266
     64A -> 67A       -0.27614
     64A -> 68A       -0.25658
     65A -> 66A       -0.19116
     65A -> 67A        0.13671
     65A -> 69A       -0.26728
     61B -> 67B       -0.15021
     61B -> 68B       -0.10665
     62B -> 66B       -0.23870
     62B -> 68B       -0.15498
     63B -> 66B       -0.23978
     63B -> 67B       -0.15911
     63B -> 68B        0.34119
     64B -> 67B       -0.31545
     64B -> 68B       -0.10422
     64B -> 69B        0.35063

 Excited State  28:  2.360-A      5.4509 eV  227.46 nm  f=0.0677  <S**2>=1.143
     63A -> 67A       -0.12436
     64A -> 68A       -0.14566
     65A -> 66A        0.32829
     65A -> 67A       -0.12680
     65A -> 69A       -0.12650
     60B -> 67B        0.16993
     61B -> 67B       -0.29386
     62B -> 66B       -0.10939
     62B -> 67B        0.15481
     62B -> 68B       -0.12836
     63B -> 68B        0.12158
     64B -> 67B        0.74204
     64B -> 69B        0.18440

 Excited State  29:  2.040-A      5.4945 eV  225.65 nm  f=0.0033  <S**2>=0.791
     44B -> 65B       -0.10841
     47B -> 65B        0.81515
     48B -> 65B       -0.48970
     49B -> 65B       -0.11475

 Excited State  30:  2.736-A      5.5620 eV  222.91 nm  f=0.0411  <S**2>=1.622
     62A -> 66A       -0.13101
     63A -> 66A       -0.21657
     65A -> 66A        0.41581
     65A -> 68A        0.17870
     60B -> 68B        0.11576
     61B -> 67B        0.11871
     62B -> 67B       -0.21578
     62B -> 68B       -0.18447
     63B -> 67B       -0.16156
     64B -> 68B        0.71340

 Excited State  31:  2.840-A      5.5913 eV  221.74 nm  f=0.0086  <S**2>=1.767
     61A -> 66A        0.14208
     62A -> 66A       -0.17156
     63A -> 66A       -0.26044
     63A -> 68A        0.13260
     64A -> 66A       -0.20290
     65A -> 66A        0.52724
     65A -> 67A       -0.27230
     65A -> 68A       -0.35863
     60B -> 67B       -0.10544
     61B -> 67B        0.15434
     62B -> 68B        0.19655
     63B -> 68B        0.10067
     64B -> 67B       -0.12957
     64B -> 68B       -0.42291

 Excited State  32:  3.201-A      5.6807 eV  218.26 nm  f=0.0077  <S**2>=2.311
     61A -> 68A        0.14241
     62A -> 68A       -0.13169
     63A -> 66A        0.13422
     63A -> 68A        0.42721
     64A -> 66A        0.14518
     64A -> 68A        0.23540
     65A -> 66A        0.17850
     65A -> 68A        0.67310
     60B -> 68B       -0.10587
     62B -> 68B        0.30156
     63B -> 68B        0.15477
     64B -> 68B       -0.14160

 Excited State  33:  2.647-A      5.7634 eV  215.12 nm  f=0.0153  <S**2>=1.502
     63A -> 66A        0.11058
     64A -> 66A       -0.19204
     60B -> 66B        0.33226
     61B -> 66B       -0.30992
     61B -> 67B        0.10626
     61B -> 69B       -0.16689
     62B -> 66B        0.20825
     62B -> 69B        0.33057
     63B -> 66B        0.18475
     63B -> 67B        0.27915
     63B -> 69B        0.26932
     64B -> 66B        0.41292
     64B -> 69B        0.34072

 Excited State  34:  2.807-A      5.8293 eV  212.69 nm  f=0.0224  <S**2>=1.720
     63A -> 66A       -0.12600
     63A -> 67A       -0.12279
     63A -> 68A       -0.13207
     63A -> 69A       -0.12583
     64A -> 66A        0.15644
     64A -> 69A       -0.12253
     65A -> 67A        0.21100
     65A -> 68A       -0.10630
     65A -> 69A        0.16531
     60B -> 66B       -0.10376
     62B -> 66B        0.38239
     62B -> 69B       -0.21942
     63B -> 66B        0.31601
     63B -> 67B       -0.17605
     63B -> 68B       -0.10430
     63B -> 69B       -0.15032
     64B -> 66B       -0.17987
     64B -> 69B        0.60010

 Excited State  35:  2.689-A      5.8461 eV  212.08 nm  f=0.0294  <S**2>=1.557
     61A -> 67A        0.15807
     62A -> 67A       -0.11791
     63A -> 66A       -0.16212
     63A -> 67A       -0.15484
     63A -> 69A       -0.27276
     64A -> 66A       -0.10943
     64A -> 67A       -0.37377
     64A -> 68A        0.11225
     64A -> 69A       -0.29295
     65A -> 66A        0.14529
     65A -> 67A        0.35006
     65A -> 69A        0.47545
     60B -> 66B        0.11313
     62B -> 69B        0.16346
     63B -> 66B       -0.23759
     63B -> 69B        0.11494
     64B -> 66B        0.11308
     64B -> 69B       -0.19322

 Excited State  36:  2.753-A      5.8992 eV  210.17 nm  f=0.0397  <S**2>=1.645
     61A -> 67A        0.11397
     62A -> 66A        0.12511
     62A -> 67A       -0.16310
     63A -> 68A       -0.10229
     63A -> 69A       -0.28710
     64A -> 66A        0.42861
     64A -> 67A        0.27754
     64A -> 68A       -0.24051
     64A -> 69A       -0.21421
     65A -> 67A        0.24340
     65A -> 69A       -0.22931
     60B -> 66B        0.10149
     61B -> 67B        0.12630
     62B -> 66B       -0.20727
     62B -> 68B        0.10095
     62B -> 69B        0.15231
     63B -> 66B        0.26854
     63B -> 67B       -0.23277
     63B -> 68B        0.16111
     63B -> 69B        0.15838
     64B -> 69B       -0.18787

 The electronic state is 2-A.
 Alpha  occ. eigenvalues --  -19.19313 -19.15674 -10.26317 -10.25796 -10.21379
 Alpha  occ. eigenvalues --  -10.20215 -10.19740 -10.19592 -10.19509 -10.19475
 Alpha  occ. eigenvalues --  -10.19474 -10.19440 -10.19425 -10.19306 -10.19268
 Alpha  occ. eigenvalues --  -10.19133 -10.17525 -10.17142  -1.05608  -1.01976
 Alpha  occ. eigenvalues --   -0.86359  -0.85727  -0.79387  -0.76254  -0.75028
 Alpha  occ. eigenvalues --   -0.74785  -0.72553  -0.71940  -0.64639  -0.62750
 Alpha  occ. eigenvalues --   -0.60974  -0.60301  -0.58833  -0.56003  -0.53510
 Alpha  occ. eigenvalues --   -0.51569  -0.50236  -0.47661  -0.46415  -0.45738
 Alpha  occ. eigenvalues --   -0.45291  -0.44737  -0.44441  -0.42548  -0.42467
 Alpha  occ. eigenvalues --   -0.41903  -0.41206  -0.39826  -0.38525  -0.38093
 Alpha  occ. eigenvalues --   -0.37542  -0.37300  -0.37059  -0.36259  -0.36032
 Alpha  occ. eigenvalues --   -0.34558  -0.34357  -0.34166  -0.31478  -0.28791
 Alpha  occ. eigenvalues --   -0.28145  -0.26032  -0.25547  -0.24813  -0.23963
 Alpha virt. eigenvalues --   -0.01321  -0.01277  -0.00987   0.00054   0.08820
 Alpha virt. eigenvalues --    0.09494   0.11005   0.12634   0.13265   0.13561
 Alpha virt. eigenvalues --    0.13890   0.14246   0.14627   0.15510   0.16098

  Beta  occ. eigenvalues --  -19.17254 -19.15629 -10.26193 -10.25840 -10.21203
  Beta  occ. eigenvalues --  -10.20215 -10.19736 -10.19575 -10.19509 -10.19476
  Beta  occ. eigenvalues --  -10.19442 -10.19425 -10.19413 -10.19315 -10.19279
  Beta  occ. eigenvalues --  -10.19106 -10.17527 -10.17131  -1.04258  -0.98699
  Beta  occ. eigenvalues --   -0.86153  -0.85638  -0.78921  -0.75934  -0.74978
  Beta  occ. eigenvalues --   -0.74753  -0.72442  -0.71594  -0.64452  -0.62381
  Beta  occ. eigenvalues --   -0.60897  -0.60256  -0.58450  -0.55688  -0.52608
  Beta  occ. eigenvalues --   -0.51423  -0.49632  -0.47237  -0.46124  -0.45270
  Beta  occ. eigenvalues --   -0.45064  -0.44424  -0.44153  -0.42473  -0.42373
  Beta  occ. eigenvalues --   -0.41822  -0.40767  -0.39528  -0.38326  -0.38003
  Beta  occ. eigenvalues --   -0.37308  -0.36987  -0.36479  -0.35813  -0.34469
  Beta  occ. eigenvalues --   -0.34463  -0.34158  -0.32552  -0.28709  -0.27205
  Beta  occ. eigenvalues --   -0.26018  -0.25609  -0.24798  -0.23458
  Beta virt. eigenvalues --   -0.16467  -0.01240  -0.01127  -0.00770   0.00132
  Beta virt. eigenvalues --    0.08910   0.09562   0.11352   0.12684   0.13346
  Beta virt. eigenvalues --    0.13629   0.14058   0.14389   0.14735   0.15548

 Mulliken charges and spin densities:
               1          2
     1  C    0.218539  -0.044753
     2  C    0.226358   0.058407
     3  O   -0.405423   0.824770
     4  C   -0.313422   0.005626
     5  H    0.111213  -0.000532
     6  H    0.105755   0.000443
     7  H    0.113080   0.000844
     8  C   -0.324473  -0.000311
     9  H    0.117944  -0.000114
    10  H    0.112678  -0.000833
    11  H    0.116879   0.002188
    12  C    0.089999   0.087353
    13  C   -0.123652  -0.002379
    14  C   -0.119290  -0.005483
    15  C   -0.102436   0.002230
    16  H    0.110302  -0.000068
    17  C   -0.109246   0.010363
    18  H    0.110784   0.001135
    19  C   -0.094408  -0.003716
    20  H    0.106948   0.000610
    21  H    0.108814   0.000638
    22  H    0.105962   0.000098
    23  C    0.086320  -0.001364
    24  C   -0.110739   0.021315
    25  C   -0.118047   0.021415
    26  C   -0.105592  -0.011804
    27  H    0.111577  -0.000829
    28  C   -0.110382  -0.011657
    29  H    0.105007  -0.000915
    30  C   -0.092443   0.029358
    31  H    0.104299   0.000424
    32  H    0.105448   0.000428
    33  H    0.105399  -0.001225
    34  O   -0.572246   0.017715
    35  H    0.328494   0.000624
 Sum of Mulliken charges =  -0.00000   1.00000

 Dipole moment (field-independent basis, Debye):
    X=             -0.5786    Y=              2.8932    Z=              0.1778  Tot=              2.9558
 Quadrupole moment (field-independent basis, Debye-Ang):
   XX=           -100.0794   YY=           -100.2460   ZZ=           -105.3647
   XY=              0.2855   XZ=             -6.7192   YZ=             -0.4119

 Normal termination of Gaussian 16 at Sat May 25 04:44:21 2019.
