 Gaussian 16, Revision B.01,
 Gaussian 16:  ES64L-G16RevB.01 20-Dec-2017

 ----------------------------------------------------------------------
 #p td=(50-50,nstates=36) ub3lyp/6-31g(d,p) scrf=(iefpcm,solvent=aceton
 itrile) guess=(mix,always) empiricaldispersion=gd3
 ----------------------------------------------------------------------

 -------------------
 Title Card Required
 -------------------
 Symbolic Z-matrix:
 Charge =  0 Multiplicity = 2

                         Standard orientation:
 ---------------------------------------------------------------------
 Center     Atomic      Atomic             Coordinates (Angstroms)
 Number     Number       Type             X           Y           Z
 ---------------------------------------------------------------------
      1          6           0       -1.424012   -1.420337   -0.988073
      2          6           0        0.787289   -1.322314    1.182305
      3          8           0       -1.857166   -2.366576   -0.324576
      4          6           0       -0.515988   -1.667894   -2.170797
      5          1           0       -0.895705   -1.171341   -3.068965
      6          1           0        0.481926   -1.265548   -1.966772
      7          1           0       -0.438317   -2.741469   -2.342806
      8          6           0       -0.219369   -1.156576    2.272451
      9          1           0       -0.444960   -0.110824    2.479241
     10          1           0       -1.158521   -1.644223    1.982470
     11          1           0        0.123326   -1.629207    3.203178
     12          6           0       -1.765767   -0.016807   -0.620399
     13          6           0       -2.762178    0.205185    0.345790
     14          6           0       -1.095700    1.084504   -1.178141
     15          6           0       -3.080783    1.498588    0.747359
     16          1           0       -3.273522   -0.652187    0.769441
     17          6           0       -1.408444    2.379220   -0.767165
     18          1           0       -0.311172    0.936057   -1.911372
     19          6           0       -2.401318    2.589070    0.193019
     20          1           0       -3.854476    1.660698    1.491597
     21          1           0       -0.873314    3.222938   -1.191368
     22          1           0       -2.644701    3.598695    0.510203
     23          6           0        1.652605   -0.327791    0.659792
     24          6           0        2.558465   -0.636524   -0.400651
     25          6           0        1.637388    1.017935    1.131002
     26          6           0        3.370056    0.342294   -0.956799
     27          1           0        2.602249   -1.654479   -0.769907
     28          6           0        2.456524    1.983408    0.564253
     29          1           0        0.970916    1.301124    1.937727
     30          6           0        3.329573    1.662243   -0.485599
     31          1           0        4.044909    0.077355   -1.766315
     32          1           0        2.415186    3.001850    0.940611
     33          1           0        3.965780    2.424095   -0.924944
     34          8           0        0.922936   -2.585578    0.671703
     35          1           0        0.054185   -3.021534    0.680877
 ---------------------------------------------------------------------

 SCF Done:  E(UB3LYP) =  -770.430920678     A.U. after   19 cycles

 Excitation energies and oscillator strengths:

 Excited State   1:  2.034-A      1.8555 eV  668.19 nm  f=0.0545  <S**2>=0.784
     65A -> 66A        0.99788
 This state for optimization and/or second-order correction.
 Total Energy, E(TD-HF/TD-DFT) =  -770.362731674
 Copying the excited state density for this state as the 1-particle RhoCI density.

 Excited State   2:  2.065-A      2.9741 eV  416.88 nm  f=0.0023  <S**2>=0.816
     65A -> 67A        0.27604
     65A -> 68A        0.90053
     64B -> 65B        0.25799
     64B -> 66B       -0.16270

 Excited State   3:  2.100-A      3.2333 eV  383.46 nm  f=0.0013  <S**2>=0.853
     65A -> 67A        0.87864
     65A -> 68A       -0.25245
     65A -> 69A        0.21488
     62B -> 65B       -0.12277
     63B -> 65B       -0.19197
     63B -> 66B        0.14260

 Excited State   4:  3.297-A      3.2677 eV  379.42 nm  f=0.0013  <S**2>=2.467
     60A -> 66A       -0.15016
     61A -> 67A        0.12527
     63A -> 66A        0.53430
     64A -> 66A        0.11568
     64A -> 67A       -0.10316
     60B -> 65B       -0.15071
     60B -> 66B       -0.16784
     61B -> 67B        0.12456
     62B -> 65B       -0.48308
     62B -> 66B       -0.31190
     63B -> 65B        0.37769
     63B -> 66B        0.11129

 Excited State   5:  2.795-A      3.3731 eV  367.57 nm  f=0.0007  <S**2>=1.703
     60A -> 66A       -0.11971
     61A -> 66A       -0.20670
     62A -> 66A        0.29983
     65A -> 67A        0.25995
     65A -> 69A       -0.39772
     65A -> 70A        0.15228
     60B -> 66B       -0.19494
     61B -> 65B       -0.31625
     61B -> 66B       -0.18575
     62B -> 65B        0.33585
     62B -> 66B        0.12466
     63B -> 65B        0.43580
     63B -> 66B       -0.15535

 Excited State   6:  2.866-A      3.3996 eV  364.70 nm  f=0.0012  <S**2>=1.804
     61A -> 66A       -0.22674
     61A -> 67A        0.11692
     62A -> 66A        0.33650
     63A -> 66A        0.10315
     65A -> 67A       -0.26620
     65A -> 69A        0.42832
     60B -> 65B       -0.37558
     61B -> 65B       -0.30406
     61B -> 66B       -0.18353
     61B -> 67B        0.10539
     62B -> 66B        0.12467
     63B -> 65B       -0.22607
     63B -> 66B        0.30123

 Excited State   7:  2.482-A      3.7820 eV  327.83 nm  f=0.0113  <S**2>=1.290
     61A -> 66A        0.30466
     63A -> 66A        0.21801
     65A -> 68A       -0.24674
     60B -> 65B       -0.11939
     61B -> 65B        0.11048
     61B -> 66B        0.10087
     62B -> 65B        0.16663
     62B -> 66B        0.11935
     64B -> 65B        0.81051

 Excited State   8:  2.236-A      3.8141 eV  325.07 nm  f=0.0001  <S**2>=1.000
     61A -> 66A       -0.11756
     62A -> 66A        0.51493
     63A -> 66A       -0.45814
     64A -> 66A       -0.27356
     61B -> 65B        0.37081
     61B -> 66B        0.17663
     62B -> 65B       -0.39236
     62B -> 66B       -0.13662
     63B -> 65B        0.13237
     64B -> 65B        0.18919

 Excited State   9:  2.920-A      3.8998 eV  317.92 nm  f=0.0055  <S**2>=1.882
     60A -> 66A       -0.10156
     61A -> 66A        0.33490
     63A -> 66A        0.17918
     64A -> 66A       -0.36327
     65A -> 68A        0.16694
     60B -> 65B       -0.29375
     61B -> 65B        0.40674
     61B -> 66B        0.14655
     62B -> 65B        0.33447
     63B -> 65B        0.14097
     63B -> 66B        0.10550
     64B -> 65B       -0.34654
     64B -> 66B        0.29360

 Excited State  10:  2.402-A      4.2782 eV  289.81 nm  f=0.0783  <S**2>=1.193
     61A -> 67A       -0.15289
     62A -> 66A       -0.16968
     63A -> 66A       -0.18695
     64A -> 66A        0.17130
     64A -> 68A       -0.17669
     65A -> 69A        0.61377
     65A -> 70A        0.25896
     60B -> 65B       -0.10312
     60B -> 67B        0.11162
     61B -> 67B       -0.11441
     63B -> 65B        0.48753
     64B -> 68B        0.27070

 Excited State  11:  3.358-A      4.3649 eV  284.05 nm  f=0.0021  <S**2>=2.569
     61A -> 67A        0.18649
     61A -> 68A       -0.22174
     62A -> 68A       -0.19016
     64A -> 67A       -0.27367
     64A -> 68A       -0.42132
     60B -> 67B       -0.13823
     61B -> 67B        0.19323
     62B -> 67B        0.10658
     62B -> 68B       -0.10337
     63B -> 65B       -0.31688
     63B -> 66B       -0.16552
     64B -> 67B        0.17954
     64B -> 68B        0.52437

 Excited State  12:  2.410-A      4.4031 eV  281.59 nm  f=0.0068  <S**2>=1.202
     61A -> 66A        0.16336
     61A -> 67A        0.17794
     64A -> 67A       -0.11538
     64A -> 68A        0.14459
     65A -> 70A        0.84381
     60B -> 65B        0.11821
     60B -> 67B       -0.12110
     61B -> 67B        0.13827
     63B -> 65B       -0.18378
     64B -> 68B       -0.17868

 Excited State  13:  2.952-A      4.4431 eV  279.05 nm  f=0.0163  <S**2>=1.929
     60A -> 67A       -0.12017
     61A -> 67A        0.30725
     62A -> 66A       -0.18283
     62A -> 67A        0.16076
     63A -> 66A       -0.20340
     64A -> 66A        0.19721
     64A -> 67A       -0.22626
     64A -> 68A        0.21447
     65A -> 69A        0.13789
     65A -> 70A       -0.27330
     60B -> 65B        0.27912
     60B -> 67B       -0.14386
     61B -> 65B        0.21442
     61B -> 67B        0.32948
     62B -> 65B        0.22223
     62B -> 67B        0.20889
     63B -> 65B        0.30290
     63B -> 66B        0.15311
     64B -> 67B        0.14484
     64B -> 68B       -0.17096

 Excited State  14:  2.373-A      4.5047 eV  275.23 nm  f=0.0553  <S**2>=1.157
     61A -> 66A       -0.32232
     64A -> 66A        0.52381
     65A -> 69A       -0.14704
     65A -> 70A        0.18689
     60B -> 65B       -0.33346
     60B -> 67B        0.12647
     61B -> 65B        0.49984
     62B -> 65B        0.26774
     62B -> 66B       -0.13273
     63B -> 65B       -0.20072

 Excited State  15:  3.021-A      4.5705 eV  271.27 nm  f=0.0059  <S**2>=2.032
     61A -> 66A       -0.25983
     62A -> 66A       -0.22444
     60B -> 65B       -0.11290
     62B -> 65B       -0.16287
     63B -> 66B       -0.17764
     64B -> 65B        0.26619
     64B -> 66B        0.82502

 Excited State  16:  2.617-A      4.6462 eV  266.85 nm  f=0.0217  <S**2>=1.462
     61A -> 66A       -0.26486
     63A -> 66A        0.19086
     64A -> 66A       -0.21246
     60B -> 65B        0.48204
     61B -> 67B       -0.11534
     62B -> 65B        0.32455
     62B -> 66B       -0.46930
     63B -> 66B        0.41949
     64B -> 65B        0.10800
     64B -> 66B        0.12563

 Excited State  17:  2.522-A      4.6925 eV  264.22 nm  f=0.0011  <S**2>=1.340
     61A -> 66A        0.37627
     62A -> 66A        0.41044
     64A -> 66A        0.54302
     60B -> 65B        0.29112
     62B -> 65B       -0.12006
     62B -> 66B        0.22304
     63B -> 66B        0.28111
     64B -> 66B        0.35491

 Excited State  18:  2.262-A      4.7343 eV  261.89 nm  f=0.0175  <S**2>=1.029
     61A -> 66A       -0.24587
     63A -> 66A        0.19371
     64A -> 66A       -0.19787
     60B -> 65B        0.24942
     60B -> 66B       -0.10106
     61B -> 65B        0.37643
     61B -> 66B       -0.45890
     62B -> 65B       -0.20211
     62B -> 66B        0.58553
     64B -> 66B       -0.10746

 Excited State  19:  2.702-A      4.8835 eV  253.88 nm  f=0.1626  <S**2>=1.575
     60A -> 66A        0.42255
     61A -> 66A       -0.12669
     62A -> 66A       -0.12102
     64A -> 68A       -0.18108
     65A -> 69A       -0.28723
     65A -> 70A        0.16631
     60B -> 65B       -0.22099
     60B -> 66B        0.28784
     61B -> 65B       -0.12382
     61B -> 66B        0.31347
     62B -> 66B        0.22442
     63B -> 66B        0.51378

 Excited State  20:  2.611-A      4.9598 eV  249.98 nm  f=0.0145  <S**2>=1.455
     60A -> 66A        0.44793
     61A -> 66A        0.22638
     61A -> 67A        0.14857
     62A -> 66A        0.26773
     63A -> 66A        0.16788
     63A -> 67A       -0.17240
     60B -> 66B        0.47732
     61B -> 66B       -0.45608
     62B -> 66B       -0.22617
     63B -> 65B        0.11332
     63B -> 66B       -0.15841

 Excited State  21:  2.176-A      5.0481 eV  245.61 nm  f=0.1687  <S**2>=0.934
     60A -> 66A        0.45193
     61A -> 66A       -0.22040
     62A -> 66A        0.26679
     63A -> 66A        0.34795
     65A -> 69A        0.23215
     60B -> 65B        0.17771
     60B -> 66B       -0.14091
     61B -> 66B        0.46844
     62B -> 66B        0.15732
     63B -> 66B       -0.38118

 Excited State  22:  3.418-A      5.1574 eV  240.40 nm  f=0.0057  <S**2>=2.671
     60A -> 66A        0.19634
     60A -> 67A       -0.22619
     61A -> 67A       -0.25320
     62A -> 67A        0.27058
     63A -> 67A        0.48644
     60B -> 67B       -0.44534
     61B -> 66B       -0.16990
     61B -> 67B       -0.23505
     62B -> 67B       -0.21485
     63B -> 67B        0.39556

 Excited State  23:  2.116-A      5.2587 eV  235.77 nm  f=0.1017  <S**2>=0.869
     60A -> 66A       -0.51385
     61A -> 66A       -0.18201
     62A -> 66A        0.12981
     63A -> 66A        0.20507
     60B -> 66B        0.68299
     61B -> 66B        0.20179
     61B -> 67B       -0.10626
     62B -> 66B        0.16109
     62B -> 67B       -0.11250
     63B -> 66B       -0.11229

 Excited State  24:  3.375-A      5.3919 eV  229.94 nm  f=0.0010  <S**2>=2.598
     51A -> 66A        0.10477
     53A -> 66A       -0.17926
     55A -> 66A        0.27276
     56A -> 66A        0.40510
     57A -> 66A       -0.11359
     60A -> 66A       -0.10415
     61A -> 70A       -0.12141
     62A -> 70A        0.11505
     63A -> 70A        0.18849
     65A -> 71A       -0.12723
     53B -> 65B       -0.20964
     53B -> 66B       -0.15634
     55B -> 65B       -0.24997
     55B -> 66B       -0.18299
     57B -> 65B       -0.33264
     57B -> 66B       -0.22256
     59B -> 65B       -0.11249
     60B -> 69B        0.17790
     61B -> 69B        0.13276
     62B -> 69B        0.10240
     63B -> 69B       -0.14574

 Excited State  25:  2.070-A      5.4508 eV  227.46 nm  f=0.0017  <S**2>=0.821
     65A -> 71A        0.93032
     65A -> 72A        0.24533
     65A -> 73A        0.11484
     59B -> 65B       -0.13369

 Excited State  26:  2.196-A      5.4747 eV  226.47 nm  f=0.0072  <S**2>=0.956
     60A -> 68A       -0.10324
     65A -> 71A        0.13245
     59B -> 65B        0.86948
     59B -> 66B       -0.32730
     63B -> 68B       -0.15264

 Excited State  27:  3.350-A      5.4847 eV  226.05 nm  f=0.0025  <S**2>=2.555
     60A -> 68A        0.39227
     62A -> 68A        0.25699
     63A -> 68A        0.25375
     64A -> 69A        0.16428
     59B -> 65B        0.20301
     60B -> 68B        0.25587
     62B -> 68B        0.10394
     63B -> 68B        0.69292

 Excited State  28:  2.801-A      5.8513 eV  211.89 nm  f=0.0031  <S**2>=1.711
     61B -> 67B       -0.36072
     62B -> 67B        0.16200
     63B -> 67B       -0.19118
     64B -> 67B        0.88322

 Excited State  29:  3.237-A      5.8770 eV  210.96 nm  f=0.0010  <S**2>=2.370
     61A -> 67A        0.34541
     62A -> 67A       -0.54027
     63A -> 67A        0.56570
     64A -> 67A        0.28521
     61B -> 67B        0.20941
     62B -> 67B       -0.29918
     64B -> 67B        0.15718

 Excited State  30:  2.359-A      5.9078 eV  209.87 nm  f=0.0027  <S**2>=1.141
     61A -> 67A        0.13485
     62A -> 67A       -0.17543
     63A -> 67A        0.32305
     60B -> 67B       -0.14118
     61B -> 67B       -0.35588
     62B -> 67B        0.74755
     63B -> 67B       -0.15210
     64B -> 67B       -0.30310

 Excited State  31:  2.499-A      5.9604 eV  208.01 nm  f=0.0015  <S**2>=1.311
     60A -> 69A       -0.26614
     62A -> 69A       -0.17005
     63A -> 69A       -0.15759
     53B -> 65B       -0.10229
     58B -> 65B        0.74948
     58B -> 66B       -0.31976
     60B -> 70B       -0.11577
     63B -> 70B       -0.27989

 Excited State  32:  2.627-A      6.0057 eV  206.44 nm  f=0.0320  <S**2>=1.476
     61A -> 67A        0.14385
     62A -> 67A       -0.12042
     63A -> 67A       -0.19897
     64A -> 67A        0.26032
     60B -> 67B        0.27170
     61B -> 67B       -0.10871
     62B -> 67B        0.21383
     63B -> 67B        0.80906

 Excited State  33:  2.905-A      6.0518 eV  204.87 nm  f=0.0011  <S**2>=1.859
     60A -> 67A       -0.11987
     61A -> 67A        0.25924
     62A -> 67A        0.42557
     62A -> 68A       -0.17903
     63A -> 67A       -0.13654
     63A -> 68A       -0.12185
     64A -> 67A        0.69651
     64A -> 69A        0.19669
     60B -> 67B       -0.15597
     61B -> 67B        0.11291
     63B -> 67B       -0.19944

 Excited State  34:  2.778-A      6.0756 eV  204.07 nm  f=0.0036  <S**2>=1.680
     60A -> 67A        0.11710
     60A -> 69A        0.33606
     60A -> 70A       -0.11495
     62A -> 69A        0.21532
     63A -> 69A        0.20957
     53B -> 65B        0.16969
     57B -> 65B       -0.30030
     57B -> 66B        0.15869
     58B -> 65B        0.50262
     58B -> 66B       -0.16105
     60B -> 70B        0.15172
     63B -> 69B       -0.10156
     63B -> 70B        0.37673
     64B -> 68B        0.10908

 Excited State  35:  2.046-A      6.1381 eV  201.99 nm  f=0.0021  <S**2>=0.797
     65A -> 71A       -0.22854
     65A -> 72A        0.93499
     65A -> 73A       -0.21361

 Excited State  36:  2.679-A      6.1738 eV  200.82 nm  f=0.0069  <S**2>=1.544
     60A -> 68A       -0.23619
     61A -> 69A        0.16860
     62A -> 67A       -0.28453
     62A -> 68A       -0.30689
     62A -> 69A        0.17938
     63A -> 68A       -0.42991
     64A -> 67A       -0.25930
     64A -> 68A        0.10697
     64A -> 69A        0.51858
     64A -> 70A       -0.11920
     63B -> 68B        0.26093

 The electronic state is 2-A.
 Alpha  occ. eigenvalues --  -19.17737 -19.14319 -10.28244 -10.24922 -10.20193
 Alpha  occ. eigenvalues --  -10.20140 -10.20079 -10.19809 -10.19671 -10.19664
 Alpha  occ. eigenvalues --  -10.19504 -10.18799 -10.18646 -10.18600 -10.18510
 Alpha  occ. eigenvalues --  -10.18499 -10.18441 -10.18404  -1.05845  -1.03833
 Alpha  occ. eigenvalues --   -0.86188  -0.85083  -0.77960  -0.77390  -0.75267
 Alpha  occ. eigenvalues --   -0.74285  -0.72962  -0.72489  -0.64866  -0.63051
 Alpha  occ. eigenvalues --   -0.60832  -0.59876  -0.57298  -0.55290  -0.51839
 Alpha  occ. eigenvalues --   -0.51185  -0.49762  -0.46622  -0.46460  -0.46033
 Alpha  occ. eigenvalues --   -0.45840  -0.44556  -0.44153  -0.43045  -0.42697
 Alpha  occ. eigenvalues --   -0.42387  -0.41773  -0.41541  -0.39007  -0.38728
 Alpha  occ. eigenvalues --   -0.38206  -0.37534  -0.36785  -0.35863  -0.35528
 Alpha  occ. eigenvalues --   -0.34825  -0.34600  -0.33939  -0.32412  -0.27147
 Alpha  occ. eigenvalues --   -0.26094  -0.25895  -0.25572  -0.25150  -0.15266
 Alpha virt. eigenvalues --   -0.05992  -0.00892  -0.00056   0.02700   0.03558
 Alpha virt. eigenvalues --    0.08433   0.09811   0.11206   0.12296   0.13473
 Alpha virt. eigenvalues --    0.13589   0.15006   0.15172   0.15768   0.15971

  Beta  occ. eigenvalues --  -19.17473 -19.14301 -10.28227 -10.24005 -10.20196
  Beta  occ. eigenvalues --  -10.20133 -10.20058 -10.19793 -10.19697 -10.19679
  Beta  occ. eigenvalues --  -10.19672 -10.18781 -10.18745 -10.18507 -10.18503
  Beta  occ. eigenvalues --  -10.18404 -10.18224 -10.18184  -1.05147  -1.03757
  Beta  occ. eigenvalues --   -0.86169  -0.84748  -0.77470  -0.77057  -0.75250
  Beta  occ. eigenvalues --   -0.73998  -0.72930  -0.72173  -0.63951  -0.63006
  Beta  occ. eigenvalues --   -0.60821  -0.59692  -0.56976  -0.55273  -0.51593
  Beta  occ. eigenvalues --   -0.51157  -0.49034  -0.46591  -0.46235  -0.45762
  Beta  occ. eigenvalues --   -0.45247  -0.44543  -0.44079  -0.42744  -0.42620
  Beta  occ. eigenvalues --   -0.41969  -0.41671  -0.41322  -0.38983  -0.38412
  Beta  occ. eigenvalues --   -0.37685  -0.37198  -0.36271  -0.35811  -0.35317
  Beta  occ. eigenvalues --   -0.34606  -0.34473  -0.33414  -0.31894  -0.26400
  Beta  occ. eigenvalues --   -0.25991  -0.25636  -0.24910  -0.24476
  Beta virt. eigenvalues --   -0.07364  -0.04861  -0.00823   0.00561   0.03498
  Beta virt. eigenvalues --    0.05203   0.08620   0.09879   0.11317   0.12356
  Beta virt. eigenvalues --    0.13552   0.13779   0.15055   0.15460   0.15890

 Mulliken charges and spin densities:
               1          2
     1  C    0.396901   0.012294
     2  C    0.245518   0.597842
     3  O   -0.530295   0.007080
     4  C   -0.398726  -0.000539
     5  H    0.141023  -0.000167
     6  H    0.151472   0.002081
     7  H    0.128600   0.000028
     8  C   -0.379715  -0.051490
     9  H    0.130459   0.002362
    10  H    0.130563   0.021847
    11  H    0.133008   0.033612
    12  C    0.057328  -0.006735
    13  C   -0.110624   0.014973
    14  C   -0.112222   0.010287
    15  C   -0.101770  -0.007304
    16  H    0.111863  -0.000697
    17  C   -0.103874  -0.007228
    18  H    0.111570  -0.000475
    19  C   -0.088672   0.016294
    20  H    0.109302   0.000253
    21  H    0.109853   0.000252
    22  H    0.111230  -0.000737
    23  C    0.096968  -0.161049
    24  C   -0.143673   0.227882
    25  C   -0.138269   0.220125
    26  C   -0.102625  -0.120358
    27  H    0.102406  -0.010077
    28  C   -0.108716  -0.118417
    29  H    0.093065  -0.009645
    30  C   -0.112525   0.255093
    31  H    0.095934   0.004305
    32  H    0.096150   0.004206
    33  H    0.093749  -0.011846
    34  O   -0.554314   0.069421
    35  H    0.339058   0.006526
 Sum of Mulliken charges =  -0.00000   1.00000

 Dipole moment (field-independent basis, Debye):
    X=             -1.1752    Y=              2.9798    Z=             -0.3474  Tot=              3.2220
 Quadrupole moment (field-independent basis, Debye-Ang):
   XX=           -108.7263   YY=           -101.8835   ZZ=            -97.5765
   XY=             -2.6660   XZ=             -7.2971   YZ=              1.1930

 Normal termination of Gaussian 16 at Sat May 25 04:45:29 2019.
