 Gaussian 16, Revision B.01,
 Gaussian 16:  ES64L-G16RevB.01 20-Dec-2017

 ----------------------------------------------------------------------
 #p td=(50-50,nstates=36) ub3lyp/6-31g(d,p) scrf=(iefpcm,solvent=aceton
 itrile) guess=(mix,always) empiricaldispersion=gd3
 ----------------------------------------------------------------------

 -------------------
 Title Card Required
 -------------------
 Symbolic Z-matrix:
 Charge =  0 Multiplicity = 2

                         Standard orientation:
 ---------------------------------------------------------------------
 Center     Atomic      Atomic             Coordinates (Angstroms)
 Number     Number       Type             X           Y           Z
 ---------------------------------------------------------------------
      1          6           0        0.630615   -1.341632    0.628358
      2          6           0       -0.679608   -1.306180   -0.605360
      3          8           0        1.146796   -2.521412    0.342860
      4          6           0       -0.091079   -1.335594    1.992882
      5          1           0        0.669023   -1.435259    2.772572
      6          1           0       -0.657775   -0.421892    2.170146
      7          1           0       -0.767990   -2.188040    2.044793
      8          6           0        0.002168   -1.380068   -1.971837
      9          1           0        0.693286   -0.555794   -2.143880
     10          1           0        0.562170   -2.313374   -2.045821
     11          1           0       -0.771186   -1.359995   -2.744920
     12          6           0        1.563627   -0.155599    0.405352
     13          6           0        2.741098   -0.347201   -0.332425
     14          6           0        1.298651    1.121842    0.920808
     15          6           0        3.625252    0.706727   -0.558166
     16          1           0        2.952217   -1.337671   -0.719718
     17          6           0        2.183615    2.178647    0.698304
     18          1           0        0.394713    1.305876    1.489204
     19          6           0        3.348611    1.976660   -0.043919
     20          1           0        4.531796    0.536970   -1.132024
     21          1           0        1.959068    3.160478    1.104711
     22          1           0        4.035683    2.799515   -0.217918
     23          6           0       -1.542563   -0.101453   -0.390853
     24          6           0       -2.699334   -0.190927    0.405408
     25          6           0       -1.222177    1.138250   -0.972458
     26          6           0       -3.512568    0.921976    0.606354
     27          1           0       -2.955426   -1.141995    0.855206
     28          6           0       -2.035403    2.250797   -0.768074
     29          1           0       -0.330579    1.242164   -1.578152
     30          6           0       -3.182930    2.148242    0.022481
     31          1           0       -4.404240    0.832437    1.219368
     32          1           0       -1.771237    3.199059   -1.225845
     33          1           0       -3.814799    3.016686    0.182121
     34          8           0       -1.413838   -2.462853   -0.344692
     35          1           0       -0.756232   -3.171984   -0.236342
 ---------------------------------------------------------------------

 SCF Done:  E(UB3LYP) =  -770.394555903     A.U. after   22 cycles

 Excitation energies and oscillator strengths:

 Excited State   1:  2.010-A      0.8020 eV 1545.97 nm  f=0.0014  <S**2>=0.760
     60B -> 65B        0.24745
     61B -> 65B       -0.14473
     62B -> 65B        0.50330
     63B -> 65B       -0.53248
     64B -> 65B        0.58931
 This state for optimization and/or second-order correction.
 Total Energy, E(TD-HF/TD-DFT) =  -770.365083485
 Copying the excited state density for this state as the 1-particle RhoCI density.

 Excited State   2:  2.024-A      2.0266 eV  611.77 nm  f=0.0083  <S**2>=0.774
     62B -> 65B       -0.16621
     63B -> 65B        0.62432
     64B -> 65B        0.74669

 Excited State   3:  2.034-A      2.2127 eV  560.34 nm  f=0.0086  <S**2>=0.784
     62B -> 65B        0.81034
     63B -> 65B        0.51772
     64B -> 65B       -0.25399

 Excited State   4:  2.064-A      2.5095 eV  494.06 nm  f=0.0302  <S**2>=0.815
     61B -> 65B        0.97118
     62B -> 65B        0.11437
     63B -> 65B       -0.13958

 Excited State   5:  2.073-A      2.6648 eV  465.27 nm  f=0.0654  <S**2>=0.824
     59B -> 65B        0.12025
     60B -> 65B        0.93267
     61B -> 65B        0.11678
     62B -> 65B       -0.19145
     63B -> 65B        0.13761

 Excited State   6:  2.039-A      3.1132 eV  398.25 nm  f=0.0143  <S**2>=0.789
     59B -> 65B        0.97468
     60B -> 65B       -0.13882

 Excited State   7:  3.106-A      3.7372 eV  331.76 nm  f=0.0015  <S**2>=2.162
     62A -> 69A        0.12492
     63A -> 66A       -0.10420
     63A -> 67A       -0.17916
     63A -> 68A       -0.14421
     63A -> 69A        0.21926
     64A -> 66A        0.14519
     64A -> 67A       -0.14506
     64A -> 68A        0.21695
     64A -> 69A        0.16025
     65A -> 66A        0.24887
     65A -> 68A        0.23889
     58B -> 65B        0.48842
     60B -> 69B        0.11408
     62B -> 67B        0.20824
     62B -> 69B       -0.21125
     63B -> 66B        0.18637
     63B -> 68B        0.14423
     63B -> 69B       -0.13540
     64B -> 66B        0.22825
     64B -> 68B        0.26962

 Excited State   8:  2.487-A      3.8224 eV  324.36 nm  f=0.0159  <S**2>=1.297
     62A -> 69A       -0.10430
     63A -> 67A        0.12103
     63A -> 69A       -0.12591
     64A -> 67A        0.13084
     64A -> 68A       -0.14599
     65A -> 66A       -0.14608
     58B -> 65B        0.80887
     62B -> 67B       -0.15492
     62B -> 69B        0.11216
     63B -> 66B       -0.13676
     64B -> 66B       -0.10611
     64B -> 68B       -0.15283

 Excited State   9:  3.298-A      3.9009 eV  317.83 nm  f=0.0240  <S**2>=2.470
     60A -> 66A        0.14531
     60A -> 68A       -0.12642
     61A -> 66A       -0.11067
     62A -> 67A        0.38123
     62A -> 69A        0.17109
     63A -> 66A        0.14932
     63A -> 69A       -0.11123
     64A -> 66A       -0.22199
     64A -> 67A       -0.17816
     64A -> 69A       -0.15350
     65A -> 66A        0.30491
     65A -> 68A       -0.21375
     58B -> 65B        0.12503
     60B -> 65B       -0.15971
     60B -> 66B        0.24395
     60B -> 67B        0.11703
     60B -> 68B       -0.17064
     61B -> 66B       -0.13545
     61B -> 67B        0.33704
     61B -> 68B        0.13249
     61B -> 69B        0.16022
     62B -> 67B        0.13556
     62B -> 69B        0.16391
     63B -> 68B       -0.12621
     64B -> 66B       -0.21486

 Excited State  10:  2.027-A      4.3697 eV  283.73 nm  f=0.0026  <S**2>=0.777
     47B -> 65B        0.12008
     48B -> 65B       -0.18207
     50B -> 65B        0.27437
     55B -> 65B       -0.56317
     57B -> 65B        0.70346
     58B -> 65B       -0.14952

 Excited State  11:  2.928-A      4.6017 eV  269.43 nm  f=0.0186  <S**2>=1.894
     62A -> 67A       -0.12699
     62A -> 69A       -0.18637
     63A -> 67A        0.16368
     63A -> 68A       -0.15258
     63A -> 69A       -0.10447
     64A -> 67A        0.26742
     64A -> 69A       -0.11307
     65A -> 66A        0.46844
     55B -> 65B       -0.44235
     57B -> 65B       -0.27290
     60B -> 68B       -0.10178
     60B -> 69B       -0.10808
     61B -> 67B       -0.10885
     61B -> 69B       -0.16420
     62B -> 67B       -0.28253
     62B -> 69B        0.10577
     63B -> 66B        0.15152
     64B -> 67B        0.15723
     64B -> 68B        0.13103

 Excited State  12:  3.278-A      4.6312 eV  267.71 nm  f=0.0010  <S**2>=2.436
     62A -> 68A       -0.13360
     63A -> 66A       -0.14064
     63A -> 67A       -0.10874
     63A -> 68A       -0.12063
     63A -> 69A        0.24210
     64A -> 66A       -0.27704
     64A -> 68A       -0.17791
     64A -> 69A       -0.10786
     65A -> 67A        0.51397
     65A -> 68A       -0.10040
     65A -> 69A       -0.15333
     60B -> 68B       -0.12464
     61B -> 67B       -0.10548
     61B -> 68B       -0.14195
     62B -> 66B        0.30094
     62B -> 68B        0.13745
     63B -> 66B        0.13922
     63B -> 67B        0.23695
     63B -> 69B       -0.16610
     64B -> 66B       -0.16535
     64B -> 67B        0.18828
     64B -> 68B       -0.10428
     64B -> 69B       -0.23212

 Excited State  13:  2.488-A      4.6669 eV  265.67 nm  f=0.0179  <S**2>=1.297
     63A -> 68A       -0.12344
     64A -> 67A        0.18524
     65A -> 66A        0.24166
     54B -> 65B        0.14196
     55B -> 65B        0.57356
     56B -> 65B        0.11180
     57B -> 65B        0.54669
     62B -> 67B       -0.17409
     63B -> 66B        0.11661
     64B -> 67B        0.11857
     64B -> 68B        0.10056

 Excited State  14:  3.271-A      4.6960 eV  264.02 nm  f=0.0163  <S**2>=2.424
     62A -> 67A        0.33491
     63A -> 66A       -0.23045
     63A -> 68A       -0.12975
     63A -> 69A       -0.14760
     64A -> 66A        0.14861
     64A -> 69A       -0.30052
     65A -> 66A       -0.21049
     65A -> 68A        0.32799
     52B -> 65B        0.14382
     54B -> 65B       -0.17327
     60B -> 66B       -0.13449
     60B -> 67B        0.19636
     61B -> 66B        0.13478
     61B -> 67B        0.28370
     62B -> 68B        0.12051
     62B -> 69B        0.26517
     63B -> 68B        0.20943
     64B -> 66B        0.25114
     64B -> 69B       -0.18994

 Excited State  15:  3.185-A      4.7307 eV  262.09 nm  f=0.0009  <S**2>=2.287
     61A -> 67A       -0.12189
     62A -> 66A        0.24857
     63A -> 67A        0.26132
     63A -> 68A        0.11640
     64A -> 67A       -0.20107
     64A -> 68A        0.23168
     65A -> 67A        0.41608
     65A -> 69A        0.34774
     60B -> 66B        0.17078
     60B -> 67B        0.20014
     60B -> 69B        0.10275
     61B -> 66B        0.25560
     61B -> 67B       -0.18340
     61B -> 68B       -0.11782
     62B -> 68B       -0.20140
     63B -> 69B        0.20381
     64B -> 67B       -0.25413
     64B -> 68B        0.15318

 Excited State  16:  2.043-A      4.7967 eV  258.48 nm  f=0.0010  <S**2>=0.793
     55B -> 65B       -0.12147
     56B -> 65B        0.97415

 Excited State  17:  2.075-A      4.9215 eV  251.92 nm  f=0.0076  <S**2>=0.826
     65A -> 66A       -0.12663
     49B -> 65B       -0.11594
     51B -> 65B        0.23324
     54B -> 65B        0.90942
     55B -> 65B       -0.10591
     57B -> 65B       -0.15039

 Excited State  18:  3.163-A      4.9476 eV  250.59 nm  f=0.0008  <S**2>=2.252
     62A -> 66A       -0.27431
     62A -> 68A        0.25770
     63A -> 66A        0.29799
     63A -> 68A        0.14580
     64A -> 66A        0.45205
     64A -> 69A       -0.11929
     65A -> 67A        0.51744
     65A -> 68A       -0.13234
     65A -> 69A       -0.11286
     61B -> 66B       -0.14363
     61B -> 68B        0.15479
     62B -> 66B       -0.27939
     63B -> 66B       -0.10777
     64B -> 66B        0.13809

 Excited State  19:  3.300-A      5.0681 eV  244.63 nm  f=0.0018  <S**2>=2.472
     62A -> 66A        0.40159
     63A -> 66A        0.10818
     63A -> 67A       -0.14321
     63A -> 68A        0.24571
     64A -> 67A        0.26520
     64A -> 68A        0.36526
     64A -> 69A       -0.12149
     65A -> 66A       -0.14748
     65A -> 69A       -0.37876
     60B -> 66B        0.17543
     61B -> 66B        0.21975
     62B -> 68B       -0.26731
     63B -> 68B       -0.12722
     63B -> 69B       -0.10145
     64B -> 67B        0.23292
     64B -> 68B        0.12772
     64B -> 69B       -0.18196

 Excited State  20:  2.622-A      5.1583 eV  240.36 nm  f=0.0670  <S**2>=1.468
     60A -> 66A       -0.23837
     62A -> 66A        0.19540
     63A -> 68A        0.22936
     64A -> 67A       -0.10597
     64A -> 68A       -0.23560
     65A -> 66A        0.60038
     65A -> 68A        0.15940
     52B -> 65B        0.19601
     53B -> 65B        0.17444
     54B -> 65B        0.14397
     60B -> 66B       -0.16604
     60B -> 68B        0.11239
     61B -> 66B        0.22645
     61B -> 68B       -0.11531
     63B -> 66B       -0.19812
     64B -> 68B       -0.23108

 Excited State  21:  2.118-A      5.2596 eV  235.73 nm  f=0.0107  <S**2>=0.872
     65A -> 68A        0.26951
     47B -> 65B        0.17627
     48B -> 65B       -0.32163
     50B -> 65B        0.42017
     51B -> 65B        0.49470
     52B -> 65B       -0.34071
     54B -> 65B       -0.14814
     55B -> 65B        0.17236
     57B -> 65B       -0.22713
     58B -> 65B       -0.18275
     62B -> 66B       -0.12258

 Excited State  22:  2.266-A      5.2955 eV  234.13 nm  f=0.0043  <S**2>=1.033
     62A -> 66A        0.14926
     63A -> 66A        0.12701
     63A -> 68A        0.19360
     64A -> 66A        0.19064
     64A -> 67A        0.16171
     64A -> 68A        0.11496
     65A -> 67A        0.16177
     65A -> 69A       -0.33551
     53B -> 65B        0.15542
     60B -> 66B       -0.13598
     60B -> 67B       -0.11336
     61B -> 68B       -0.10066
     62B -> 66B        0.33581
     62B -> 68B        0.19820
     63B -> 66B        0.15032
     63B -> 67B       -0.32587
     63B -> 68B        0.17334
     63B -> 69B        0.11652
     64B -> 66B       -0.21120
     64B -> 67B       -0.29782
     64B -> 69B        0.33959

 Excited State  23:  2.700-A      5.3067 eV  233.64 nm  f=0.0136  <S**2>=1.573
     62A -> 66A       -0.12078
     62A -> 68A        0.10095
     63A -> 66A        0.33515
     63A -> 68A        0.11613
     64A -> 66A       -0.27370
     65A -> 66A       -0.14374
     65A -> 67A        0.10718
     65A -> 68A        0.66263
     50B -> 65B       -0.15704
     51B -> 65B       -0.13890
     53B -> 65B       -0.15805
     54B -> 65B        0.11211
     62B -> 66B       -0.15541
     63B -> 66B        0.17574
     64B -> 66B       -0.24536

 Excited State  24:  2.118-A      5.3725 eV  230.78 nm  f=0.0141  <S**2>=0.871
     65A -> 66A       -0.10135
     49B -> 65B       -0.10803
     51B -> 65B       -0.23516
     53B -> 65B        0.90389
     63B -> 66B        0.13406

 Excited State  25:  2.554-A      5.4122 eV  229.08 nm  f=0.0100  <S**2>=1.381
     62A -> 66A       -0.16378
     63A -> 68A       -0.11326
     64A -> 66A        0.12636
     65A -> 67A        0.13863
     65A -> 69A        0.24081
     60B -> 67B       -0.30622
     60B -> 69B       -0.15131
     61B -> 66B        0.35619
     61B -> 67B        0.22302
     61B -> 68B       -0.11178
     61B -> 69B        0.16075
     62B -> 66B        0.10633
     62B -> 68B       -0.22223
     63B -> 67B       -0.33974
     64B -> 66B       -0.21771
     64B -> 67B        0.46859
     64B -> 68B        0.14657

 Excited State  26:  2.748-A      5.4412 eV  227.86 nm  f=0.0088  <S**2>=1.638
     61A -> 66A        0.12484
     63A -> 66A       -0.12249
     64A -> 66A        0.14193
     65A -> 68A       -0.27797
     52B -> 65B        0.15217
     60B -> 66B       -0.14737
     62B -> 66B       -0.45447
     62B -> 68B       -0.11566
     63B -> 66B        0.55593
     63B -> 68B        0.24826
     64B -> 66B       -0.32677
     64B -> 68B       -0.15935

 Excited State  27:  2.192-A      5.5107 eV  224.99 nm  f=0.0041  <S**2>=0.952
     64A -> 66A       -0.13119
     50B -> 65B        0.11470
     51B -> 65B        0.36685
     52B -> 65B        0.83468
     61B -> 66B       -0.14948
     61B -> 67B       -0.12332
     64B -> 68B        0.11393

 Excited State  28:  2.057-A      5.5360 eV  223.96 nm  f=0.0135  <S**2>=0.808
     47B -> 65B       -0.14310
     48B -> 65B        0.31817
     49B -> 65B        0.30440
     50B -> 65B       -0.47183
     51B -> 65B        0.61396
     52B -> 65B       -0.16532
     53B -> 65B        0.16705
     55B -> 65B       -0.20739
     57B -> 65B        0.10587
     63B -> 66B        0.11568

 Excited State  29:  2.509-A      5.6219 eV  220.54 nm  f=0.0141  <S**2>=1.324
     62A -> 66A        0.10450
     62A -> 67A        0.11649
     63A -> 67A       -0.38639
     63A -> 68A        0.11139
     63A -> 69A        0.13931
     64A -> 67A        0.54960
     64A -> 69A       -0.12081
     65A -> 69A        0.63890

 Excited State  30:  2.536-A      5.6515 eV  219.38 nm  f=0.0243  <S**2>=1.358
     60A -> 67A       -0.22509
     61A -> 66A        0.16354
     62A -> 67A        0.18593
     63A -> 66A       -0.13410
     63A -> 69A       -0.30740
     64A -> 66A       -0.35027
     64A -> 67A        0.11542
     64A -> 69A        0.39799
     65A -> 67A        0.34211
     65A -> 68A       -0.12619
     49B -> 65B        0.24974
     50B -> 65B        0.13272
     62B -> 66B       -0.19294
     63B -> 67B       -0.13110
     64B -> 66B        0.32238
     64B -> 68B       -0.15245

 Excited State  31:  2.549-A      5.6697 eV  218.68 nm  f=0.0130  <S**2>=1.375
     60A -> 67A        0.13392
     61A -> 66A        0.31208
     61A -> 68A        0.13068
     63A -> 66A        0.42029
     63A -> 69A        0.11179
     64A -> 67A       -0.14630
     64A -> 69A       -0.26449
     65A -> 67A       -0.19098
     65A -> 68A       -0.10301
     49B -> 65B        0.31320
     50B -> 65B        0.17427
     61B -> 67B       -0.14432
     62B -> 66B        0.19950
     62B -> 67B        0.19437
     63B -> 66B        0.17566
     63B -> 67B       -0.21254
     63B -> 69B        0.13147
     64B -> 66B        0.30621
     64B -> 67B        0.17042
     64B -> 68B       -0.10067

 Excited State  32:  2.412-A      5.6821 eV  218.20 nm  f=0.0036  <S**2>=1.204
     48B -> 65B        0.16868
     49B -> 65B        0.59069
     50B -> 65B        0.31149
     51B -> 65B       -0.13574
     54B -> 65B        0.10017
     60B -> 67B       -0.15614
     61B -> 66B        0.10025
     61B -> 67B        0.15413
     62B -> 67B       -0.32670
     62B -> 69B        0.12314
     63B -> 67B        0.34457
     63B -> 69B       -0.22941
     64B -> 66B       -0.13515
     64B -> 67B       -0.17598
     64B -> 68B        0.12177
     64B -> 69B        0.15035

 Excited State  33:  2.552-A      5.7029 eV  217.41 nm  f=0.0128  <S**2>=1.378
     61A -> 66A       -0.34070
     61A -> 68A       -0.14141
     63A -> 66A       -0.27159
     64A -> 68A        0.14018
     65A -> 68A        0.13166
     48B -> 65B        0.10064
     49B -> 65B        0.39780
     50B -> 65B        0.19867
     60B -> 67B        0.18847
     61B -> 66B       -0.16769
     61B -> 67B       -0.13736
     62B -> 67B        0.25816
     63B -> 66B       -0.17289
     63B -> 67B       -0.32428
     63B -> 69B        0.20579
     64B -> 66B       -0.24920
     64B -> 67B        0.16427
     64B -> 69B       -0.21643

 Excited State  34:  2.822-A      5.7568 eV  215.37 nm  f=0.0086  <S**2>=1.741
     61A -> 66A        0.50680
     61A -> 68A        0.17277
     63A -> 66A        0.13552
     64A -> 66A       -0.10239
     65A -> 68A       -0.12501
     60B -> 66B       -0.14868
     62B -> 66B       -0.10770
     62B -> 68B        0.13953
     63B -> 66B       -0.42047
     63B -> 68B        0.25360
     64B -> 66B       -0.33248
     64B -> 68B        0.41972
     64B -> 69B       -0.13094

 Excited State  35:  2.732-A      5.8026 eV  213.67 nm  f=0.0005  <S**2>=1.616
     62A -> 66A       -0.10388
     63A -> 67A       -0.11374
     64A -> 68A        0.23855
     60B -> 68B       -0.10403
     61B -> 68B        0.12046
     62B -> 66B        0.16349
     62B -> 67B       -0.19079
     62B -> 68B       -0.38640
     63B -> 66B       -0.26965
     63B -> 68B        0.57602
     64B -> 68B       -0.40922

 Excited State  36:  2.054-A      5.8230 eV  212.92 nm  f=0.0014  <S**2>=0.805
     47B -> 65B       -0.21010
     48B -> 65B        0.69979
     49B -> 65B       -0.41619
     50B -> 65B        0.45510
     51B -> 65B        0.10574

 The electronic state is 2-A.
 Alpha  occ. eigenvalues --  -19.16775 -19.14902 -10.28175 -10.26021 -10.20608
 Alpha  occ. eigenvalues --  -10.19912 -10.19891 -10.19665 -10.19578 -10.19544
 Alpha  occ. eigenvalues --  -10.19430 -10.19152 -10.19103 -10.19040 -10.19026
 Alpha  occ. eigenvalues --  -10.18704 -10.18208 -10.17889  -1.05795  -1.01250
 Alpha  occ. eigenvalues --   -0.86441  -0.85312  -0.79176  -0.76081  -0.75239
 Alpha  occ. eigenvalues --   -0.74458  -0.73005  -0.72049  -0.64967  -0.62210
 Alpha  occ. eigenvalues --   -0.60967  -0.60034  -0.58165  -0.55705  -0.52483
 Alpha  occ. eigenvalues --   -0.52128  -0.49994  -0.47884  -0.46221  -0.45365
 Alpha  occ. eigenvalues --   -0.45262  -0.44913  -0.44028  -0.43159  -0.42488
 Alpha  occ. eigenvalues --   -0.41930  -0.41176  -0.40436  -0.38607  -0.38365
 Alpha  occ. eigenvalues --   -0.37979  -0.37299  -0.36656  -0.36237  -0.34755
 Alpha  occ. eigenvalues --   -0.34739  -0.34384  -0.33623  -0.30866  -0.28324
 Alpha  occ. eigenvalues --   -0.26530  -0.26149  -0.25088  -0.24590  -0.22658
 Alpha virt. eigenvalues --   -0.01816  -0.01253  -0.00605   0.00169   0.08720
 Alpha virt. eigenvalues --    0.09797   0.10716   0.11295   0.12663   0.13448
 Alpha virt. eigenvalues --    0.13755   0.14428   0.14511   0.15603   0.16115

  Beta  occ. eigenvalues --  -19.16662 -19.13458 -10.27726 -10.26025 -10.20641
  Beta  occ. eigenvalues --  -10.19824 -10.19814 -10.19616 -10.19610 -10.19554
  Beta  occ. eigenvalues --  -10.19429 -10.19139 -10.19093 -10.19042 -10.19028
  Beta  occ. eigenvalues --  -10.18695 -10.18197 -10.17800  -1.05228  -0.98618
  Beta  occ. eigenvalues --   -0.86294  -0.85229  -0.78711  -0.75767  -0.75155
  Beta  occ. eigenvalues --   -0.74428  -0.72799  -0.71685  -0.64576  -0.61938
  Beta  occ. eigenvalues --   -0.60892  -0.60001  -0.57846  -0.55087  -0.52132
  Beta  occ. eigenvalues --   -0.51681  -0.49414  -0.47403  -0.46014  -0.45216
  Beta  occ. eigenvalues --   -0.44912  -0.44727  -0.43949  -0.42988  -0.42420
  Beta  occ. eigenvalues --   -0.41909  -0.40655  -0.39902  -0.38504  -0.38095
  Beta  occ. eigenvalues --   -0.37701  -0.36868  -0.36433  -0.35637  -0.34582
  Beta  occ. eigenvalues --   -0.34565  -0.33770  -0.32456  -0.29321  -0.26521
  Beta  occ. eigenvalues --   -0.25873  -0.24789  -0.24610  -0.24186
  Beta virt. eigenvalues --   -0.13768  -0.01342  -0.01086  -0.00196   0.00307
  Beta virt. eigenvalues --    0.08811   0.09830   0.11478   0.11654   0.12750
  Beta virt. eigenvalues --    0.13518   0.13909   0.14591   0.14693   0.15715

 Mulliken charges and spin densities:
               1          2
     1  C    0.250421  -0.014475
     2  C    0.216104   0.232902
     3  O   -0.508976   0.574202
     4  C   -0.327376   0.043836
     5  H    0.122205   0.003545
     6  H    0.119170  -0.001719
     7  H    0.118445  -0.002036
     8  C   -0.322256   0.008935
     9  H    0.127458  -0.000118
    10  H    0.123118  -0.001205
    11  H    0.125189   0.004950
    12  C    0.090316  -0.002056
    13  C   -0.124755   0.011017
    14  C   -0.125268   0.011551
    15  C   -0.102928  -0.004405
    16  H    0.102038  -0.001329
    17  C   -0.110857  -0.006262
    18  H    0.101609  -0.000309
    19  C   -0.097324   0.012793
    20  H    0.100831   0.000171
    21  H    0.101928   0.000297
    22  H    0.101631  -0.000524
    23  C    0.095171  -0.035745
    24  C   -0.107174   0.064333
    25  C   -0.109608   0.060442
    26  C   -0.103913  -0.033902
    27  H    0.116678  -0.002662
    28  C   -0.109485  -0.033253
    29  H    0.109668  -0.002426
    30  C   -0.088861   0.071381
    31  H    0.108358   0.001321
    32  H    0.109224   0.001216
    33  H    0.109566  -0.003083
    34  O   -0.543869   0.040934
    35  H    0.333522   0.001680
 Sum of Mulliken charges =  -0.00000   1.00000

 Dipole moment (field-independent basis, Debye):
    X=             -1.1621    Y=              3.1924    Z=             -0.3996  Tot=              3.4208
 Quadrupole moment (field-independent basis, Debye-Ang):
   XX=           -101.5742   YY=           -101.4627   ZZ=           -102.8229
   XY=              0.4846   XZ=             -6.8152   YZ=              0.8011

 Normal termination of Gaussian 16 at Sat May 25 04:44:53 2019.
