 Gaussian 16, Revision B.01,
 Gaussian 16:  ES64L-G16RevB.01 20-Dec-2017

 ----------------------------------------------------------------------
 #p td=(50-50,nstates=36) ub3lyp/6-31g(d,p) scrf=(iefpcm,solvent=aceton
 itrile) guess=(mix,always) empiricaldispersion=gd3
 ----------------------------------------------------------------------

 -------------------
 Title Card Required
 -------------------
 Symbolic Z-matrix:
 Charge =  0 Multiplicity = 2

                         Standard orientation:
 ---------------------------------------------------------------------
 Center     Atomic      Atomic             Coordinates (Angstroms)
 Number     Number       Type             X           Y           Z
 ---------------------------------------------------------------------
      1          6           0       -1.225765   -1.446801   -0.979493
      2          6           0        0.786088   -1.293356    1.103510
      3          8           0       -1.628687   -2.450050   -0.379446
      4          6           0       -0.255934   -1.586603   -2.131248
      5          1           0       -0.698885   -1.182735   -3.047784
      6          1           0        0.667318   -1.032653   -1.939850
      7          1           0       -0.018538   -2.641133   -2.270674
      8          6           0       -0.235892   -1.184875    2.188174
      9          1           0       -0.588834   -0.163797    2.330045
     10          1           0       -1.105404   -1.803154    1.939550
     11          1           0        0.168777   -1.548643    3.142844
     12          6           0       -1.724395   -0.091174   -0.614911
     13          6           0       -2.791675    0.014878    0.294116
     14          6           0       -1.146805    1.081351   -1.129930
     15          6           0       -3.267315    1.262967    0.683403
     16          1           0       -3.232702   -0.896136    0.683230
     17          6           0       -1.619291    2.331295   -0.733251
     18          1           0       -0.313722    1.024599   -1.820935
     19          6           0       -2.679215    2.425329    0.172068
     20          1           0       -4.093637    1.334261    1.384086
     21          1           0       -1.156324    3.231230   -1.125791
     22          1           0       -3.046290    3.400138    0.478967
     23          6           0        1.638241   -0.253896    0.642987
     24          6           0        2.644621   -0.517131   -0.333946
     25          6           0        1.504525    1.090591    1.095380
     26          6           0        3.444960    0.502835   -0.829776
     27          1           0        2.775277   -1.533136   -0.687465
     28          6           0        2.312633    2.098726    0.589235
     29          1           0        0.754940    1.339638    1.837532
     30          6           0        3.289071    1.820705   -0.377886
     31          1           0        4.200924    0.272269   -1.575468
     32          1           0        2.180998    3.115600    0.948385
     33          1           0        3.916451    2.614967   -0.770039
     34          8           0        1.046598   -2.553052    0.640394
     35          1           0        0.203245   -3.035541    0.575187
 ---------------------------------------------------------------------

 SCF Done:  E(UB3LYP) =  -770.430449449     A.U. after   20 cycles

 Excitation energies and oscillator strengths:

 Excited State   1:  2.035-A      1.9593 eV  632.80 nm  f=0.0836  <S**2>=0.785
     65A -> 66A        0.99697
 This state for optimization and/or second-order correction.
 Total Energy, E(TD-HF/TD-DFT) =  -770.358446893
 Copying the excited state density for this state as the 1-particle RhoCI density.

 Excited State   2:  2.067-A      3.0186 eV  410.73 nm  f=0.0017  <S**2>=0.819
     65A -> 67A        0.47463
     65A -> 68A        0.79726
     64B -> 65B        0.29601
     64B -> 66B        0.14998

 Excited State   3:  3.155-A      3.2499 eV  381.50 nm  f=0.0021  <S**2>=2.239
     60A -> 66A       -0.12541
     61A -> 67A        0.10302
     63A -> 66A        0.47742
     60B -> 65B        0.10544
     60B -> 66B       -0.12965
     61B -> 67B        0.10881
     62B -> 65B        0.56805
     62B -> 66B       -0.31028
     63B -> 65B       -0.42579
     63B -> 66B        0.12754

 Excited State   4:  2.150-A      3.2834 eV  377.61 nm  f=0.0019  <S**2>=0.906
     65A -> 67A        0.61618
     65A -> 68A       -0.33726
     65A -> 69A        0.37978
     65A -> 70A        0.13279
     60B -> 65B        0.13900
     60B -> 66B        0.11979
     62B -> 65B        0.20803
     63B -> 65B        0.39769
     63B -> 66B        0.18076
     64B -> 65B       -0.18796

 Excited State   5:  3.047-A      3.3432 eV  370.86 nm  f=0.0021  <S**2>=2.071
     60A -> 66A       -0.14361
     61A -> 66A       -0.10884
     61A -> 67A        0.11557
     62A -> 66A        0.40567
     64A -> 66A       -0.11026
     64A -> 67A       -0.10672
     65A -> 67A        0.29752
     65A -> 68A       -0.18125
     60B -> 65B        0.20137
     60B -> 66B       -0.17211
     61B -> 65B        0.42718
     61B -> 66B       -0.23798
     61B -> 67B        0.12827
     62B -> 65B       -0.37250
     62B -> 66B        0.14505
     62B -> 69B       -0.10444
     63B -> 65B       -0.27011

 Excited State   6:  2.395-A      3.3971 eV  364.97 nm  f=0.0003  <S**2>=1.184
     62A -> 66A       -0.19934
     63A -> 66A       -0.16162
     65A -> 67A        0.53367
     65A -> 68A       -0.23265
     65A -> 69A       -0.44625
     65A -> 70A       -0.10613
     60B -> 65B       -0.32627
     61B -> 65B       -0.17816
     63B -> 65B       -0.28339
     63B -> 66B       -0.27630
     64B -> 65B       -0.11764

 Excited State   7:  2.359-A      3.7066 eV  334.49 nm  f=0.0116  <S**2>=1.141
     61A -> 66A        0.20383
     65A -> 68A       -0.34695
     61B -> 65B       -0.17714
     61B -> 66B        0.12233
     64B -> 65B        0.85772

 Excited State   8:  2.365-A      3.8081 eV  325.58 nm  f=0.0004  <S**2>=1.149
     62A -> 66A       -0.55154
     63A -> 66A        0.56994
     63A -> 70A       -0.10249
     64A -> 66A        0.29313
     61B -> 65B        0.29959
     62B -> 65B       -0.35474
     63B -> 65B        0.11882

 Excited State   9:  2.885-A      3.8681 eV  320.53 nm  f=0.0028  <S**2>=1.831
     61A -> 66A       -0.29057
     62A -> 66A        0.16385
     63A -> 66A       -0.19276
     64A -> 66A        0.35583
     65A -> 67A       -0.10774
     65A -> 68A       -0.13802
     60B -> 65B       -0.35705
     61B -> 65B        0.47368
     61B -> 66B       -0.14484
     62B -> 65B        0.34839
     63B -> 65B        0.15804
     64B -> 65B        0.20555
     64B -> 66B        0.26288

 Excited State  10:  2.353-A      4.2335 eV  292.87 nm  f=0.0885  <S**2>=1.134
     61A -> 67A       -0.18612
     62A -> 66A       -0.15721
     63A -> 66A       -0.20018
     64A -> 66A        0.21693
     64A -> 67A        0.12337
     64A -> 68A       -0.11088
     65A -> 69A        0.62363
     65A -> 70A       -0.13681
     60B -> 65B        0.10761
     60B -> 66B        0.10538
     60B -> 67B        0.12952
     61B -> 67B       -0.14539
     63B -> 65B       -0.52568
     64B -> 68B       -0.17142

 Excited State  11:  3.358-A      4.3443 eV  285.40 nm  f=0.0044  <S**2>=2.569
     60A -> 68A       -0.10018
     61A -> 67A       -0.11127
     61A -> 68A        0.31677
     62A -> 68A        0.11143
     64A -> 67A        0.34956
     64A -> 68A        0.36458
     65A -> 69A       -0.17248
     60B -> 67B        0.10130
     60B -> 68B       -0.11840
     61B -> 65B        0.11904
     61B -> 67B       -0.17860
     61B -> 68B        0.12817
     62B -> 68B        0.11828
     63B -> 65B       -0.23912
     63B -> 66B        0.12007
     64B -> 67B        0.26429
     64B -> 68B        0.50218

 Excited State  12:  2.951-A      4.4088 eV  281.22 nm  f=0.0089  <S**2>=1.927
     60A -> 67A        0.11448
     61A -> 66A        0.17664
     61A -> 67A       -0.33226
     63A -> 66A        0.12889
     64A -> 66A       -0.33036
     64A -> 67A        0.17704
     64A -> 68A       -0.29461
     65A -> 69A       -0.15614
     60B -> 65B        0.26231
     60B -> 67B        0.12731
     61B -> 65B        0.37959
     61B -> 67B       -0.32599
     62B -> 65B        0.23807
     62B -> 67B       -0.15694
     63B -> 65B        0.12776
     63B -> 66B       -0.14991
     64B -> 67B        0.10439
     64B -> 68B       -0.25998

 Excited State  13:  2.479-A      4.4458 eV  278.88 nm  f=0.0155  <S**2>=1.287
     61A -> 66A       -0.32705
     61A -> 67A       -0.15317
     62A -> 66A        0.25859
     63A -> 66A        0.12459
     64A -> 66A        0.40685
     64A -> 68A       -0.10787
     65A -> 69A       -0.20275
     65A -> 70A        0.46645
     60B -> 65B        0.33671
     60B -> 67B        0.16188
     61B -> 65B       -0.33673
     62B -> 65B       -0.13341
     63B -> 67B       -0.11232
     64B -> 68B       -0.10635

 Excited State  14:  2.275-A      4.4950 eV  275.83 nm  f=0.0564  <S**2>=1.044
     62A -> 66A       -0.11387
     64A -> 66A       -0.19331
     65A -> 70A        0.79244
     60B -> 65B       -0.31219
     60B -> 66B        0.12662
     61B -> 65B        0.18412
     63B -> 65B       -0.27879
     63B -> 66B        0.12175

 Excited State  15:  2.671-A      4.6159 eV  268.60 nm  f=0.0464  <S**2>=1.534
     61A -> 67A        0.14223
     62A -> 66A       -0.25364
     63A -> 66A       -0.23142
     64A -> 66A        0.14629
     64A -> 68A        0.12129
     65A -> 69A       -0.11490
     60B -> 65B        0.49152
     60B -> 66B        0.10631
     61B -> 65B        0.13095
     61B -> 67B        0.20586
     62B -> 65B        0.25629
     62B -> 66B        0.28055
     62B -> 67B        0.10321
     63B -> 66B       -0.47270
     64B -> 66B       -0.20175
     64B -> 68B        0.13795

 Excited State  16:  3.264-A      4.6407 eV  267.17 nm  f=0.0021  <S**2>=2.414
     61A -> 66A        0.51532
     64A -> 66A        0.23108
     60B -> 65B        0.18644
     61B -> 66B        0.20487
     64B -> 65B       -0.21202
     64B -> 66B        0.68429

 Excited State  17:  2.469-A      4.7051 eV  263.51 nm  f=0.0034  <S**2>=1.274
     61A -> 66A        0.26128
     62A -> 66A        0.16877
     63A -> 66A        0.15516
     64A -> 66A        0.26938
     60B -> 65B       -0.23829
     60B -> 66B       -0.10413
     61B -> 65B       -0.17633
     61B -> 66B       -0.26359
     62B -> 65B        0.26445
     62B -> 66B        0.68987
     64B -> 66B       -0.21615

 Excited State  18:  2.203-A      4.7490 eV  261.07 nm  f=0.0149  <S**2>=0.964
     61A -> 66A       -0.38696
     62A -> 66A       -0.17785
     64A -> 66A       -0.46204
     61B -> 65B       -0.21291
     61B -> 66B       -0.30183
     62B -> 66B        0.34821
     63B -> 66B       -0.11229
     64B -> 66B        0.53436

 Excited State  19:  3.023-A      4.9276 eV  251.61 nm  f=0.0907  <S**2>=2.035
     60A -> 66A        0.54924
     61A -> 66A       -0.13154
     64A -> 66A       -0.10497
     64A -> 67A       -0.10351
     64A -> 68A       -0.14857
     65A -> 69A       -0.20810
     65A -> 70A       -0.21291
     60B -> 65B        0.10596
     60B -> 66B        0.33737
     61B -> 66B        0.24898
     61B -> 67B        0.10616
     62B -> 66B        0.20025
     63B -> 66B        0.47435

 Excited State  20:  2.474-A      5.0064 eV  247.65 nm  f=0.0323  <S**2>=1.281
     60A -> 66A       -0.34029
     61A -> 66A       -0.37068
     62A -> 66A       -0.14800
     62A -> 67A        0.17651
     63A -> 66A       -0.12703
     63A -> 67A        0.21404
     60B -> 66B       -0.41978
     61B -> 66B        0.51138
     62B -> 66B        0.24572
     63B -> 66B        0.22766

 Excited State  21:  2.131-A      5.1011 eV  243.05 nm  f=0.1895  <S**2>=0.885
     60A -> 66A       -0.37410
     62A -> 66A       -0.34870
     63A -> 66A       -0.33997
     65A -> 69A       -0.22846
     59B -> 65B       -0.16448
     60B -> 65B        0.15160
     60B -> 66B        0.12386
     61B -> 66B       -0.43750
     63B -> 66B        0.47843

 Excited State  22:  3.428-A      5.1617 eV  240.20 nm  f=0.0022  <S**2>=2.687
     60A -> 66A        0.14942
     60A -> 67A       -0.19913
     61A -> 67A       -0.11491
     62A -> 67A        0.34351
     63A -> 67A        0.44038
     63A -> 68A       -0.11817
     64A -> 67A       -0.10158
     60B -> 67B       -0.39314
     61B -> 66B       -0.20886
     61B -> 67B       -0.29215
     62B -> 67B       -0.16506
     63B -> 67B        0.43906
     64B -> 67B       -0.11122

 Excited State  23:  2.096-A      5.2906 eV  234.35 nm  f=0.0173  <S**2>=0.848
     63A -> 66A       -0.10303
     59B -> 65B        0.90558
     59B -> 66B        0.24569
     60B -> 66B       -0.12611
     61B -> 66B       -0.10985

 Excited State  24:  2.149-A      5.3289 eV  232.67 nm  f=0.0829  <S**2>=0.904
     60A -> 66A       -0.56304
     62A -> 66A        0.13493
     63A -> 66A        0.14221
     64A -> 67A       -0.11066
     65A -> 70A       -0.11791
     59B -> 65B        0.15596
     60B -> 66B        0.65592
     61B -> 66B        0.20730
     62B -> 66B        0.11471

 Excited State  25:  3.268-A      5.3775 eV  230.56 nm  f=0.0042  <S**2>=2.420
     53A -> 66A        0.14801
     55A -> 66A        0.21247
     56A -> 66A        0.40243
     57A -> 66A       -0.16162
     62A -> 70A       -0.14281
     63A -> 70A       -0.16176
     53B -> 65B        0.18515
     53B -> 66B       -0.13105
     55B -> 65B        0.22252
     55B -> 66B       -0.14924
     57B -> 65B        0.41470
     57B -> 66B       -0.22885
     59B -> 65B       -0.10910
     60B -> 66B       -0.17574
     60B -> 69B        0.14940
     61B -> 69B        0.14110
     63B -> 69B       -0.14197

 Excited State  26:  3.405-A      5.4843 eV  226.07 nm  f=0.0026  <S**2>=2.649
     60A -> 67A        0.17057
     60A -> 68A        0.37061
     61A -> 68A        0.13920
     62A -> 68A        0.23153
     63A -> 68A        0.23981
     64A -> 69A        0.16134
     60B -> 67B        0.12686
     60B -> 68B        0.27780
     62B -> 68B        0.13058
     63B -> 67B        0.18400
     63B -> 68B        0.65629

 Excited State  27:  2.048-A      5.5908 eV  221.76 nm  f=0.0001  <S**2>=0.798
     65A -> 71A        0.94156
     65A -> 72A        0.26655
     65A -> 73A       -0.12893

 Excited State  28:  3.395-A      5.8608 eV  211.55 nm  f=0.0009  <S**2>=2.632
     62A -> 67A        0.39234
     63A -> 67A       -0.36154
     64A -> 67A       -0.10870
     61B -> 67B       -0.41075
     62B -> 67B        0.55253
     63B -> 67B       -0.17660
     64B -> 67B       -0.38982

 Excited State  29:  2.251-A      5.8791 eV  210.89 nm  f=0.0045  <S**2>=1.017
     62A -> 67A       -0.47893
     63A -> 67A        0.54836
     63A -> 68A       -0.10695
     64A -> 67A        0.28996
     61B -> 67B       -0.21565
     62B -> 67B        0.26437
     63B -> 67B       -0.19264
     64B -> 67B       -0.43005

 Excited State  30:  2.252-A      5.9022 eV  210.06 nm  f=0.0010  <S**2>=1.018
     60A -> 69A       -0.15917
     58B -> 65B        0.87101
     58B -> 66B        0.29010
     63B -> 70B       -0.14859

 Excited State  31:  2.601-A      5.9261 eV  209.22 nm  f=0.0105  <S**2>=1.442
     63A -> 67A        0.18800
     58B -> 65B        0.11429
     60B -> 67B       -0.15597
     62B -> 67B        0.62012
     64B -> 67B        0.68654
     64B -> 68B       -0.11601

 Excited State  32:  2.617-A      6.0277 eV  205.69 nm  f=0.0512  <S**2>=1.462
     60A -> 67A       -0.10903
     60A -> 69A       -0.21497
     61A -> 68A       -0.11239
     62A -> 67A       -0.15918
     62A -> 68A       -0.11188
     63A -> 67A       -0.25755
     63A -> 68A       -0.11921
     63A -> 69A       -0.11382
     64A -> 67A        0.34792
     64A -> 69A        0.22918
     53B -> 65B        0.10897
     57B -> 65B       -0.19703
     58B -> 65B       -0.18015
     62B -> 67B        0.16450
     63B -> 67B        0.55792
     63B -> 70B       -0.20152

 Excited State  33:  2.929-A      6.0337 eV  205.49 nm  f=0.0095  <S**2>=1.894
     60A -> 69A        0.30939
     60A -> 70A        0.10492
     61A -> 67A        0.12753
     61A -> 69A        0.17073
     62A -> 69A        0.21283
     63A -> 67A       -0.12261
     63A -> 69A        0.18616
     64A -> 67A        0.24673
     65A -> 78A       -0.10913
     53B -> 65B       -0.20164
     56B -> 65B       -0.10519
     57B -> 65B        0.27529
     57B -> 66B        0.13086
     58B -> 65B        0.22126
     60B -> 66B       -0.12519
     60B -> 70B        0.15607
     62B -> 67B        0.10212
     63B -> 67B        0.34748
     63B -> 69B       -0.17030
     63B -> 70B        0.32659
     64B -> 68B       -0.10259

 Excited State  34:  2.900-A      6.0935 eV  203.47 nm  f=0.0009  <S**2>=1.852
     60A -> 67A       -0.17169
     61A -> 67A        0.31327
     61A -> 68A       -0.18507
     61A -> 69A        0.10322
     62A -> 67A        0.31923
     62A -> 68A       -0.17648
     63A -> 68A       -0.12692
     64A -> 67A        0.48171
     64A -> 69A        0.23916
     60B -> 67B       -0.29259
     63B -> 67B       -0.41885
     63B -> 68B        0.14165
     64B -> 67B        0.10728
     64B -> 69B       -0.10906

 Excited State  35:  2.776-A      6.1586 eV  201.32 nm  f=0.0021  <S**2>=1.676
     60A -> 68A       -0.16686
     61A -> 67A       -0.33086
     61A -> 69A        0.23627
     62A -> 67A       -0.29429
     62A -> 68A       -0.18444
     62A -> 69A        0.12038
     63A -> 68A       -0.32767
     64A -> 67A       -0.33999
     64A -> 68A        0.25457
     64A -> 69A        0.46190
     64A -> 70A        0.12794
     63B -> 67B       -0.10979
     63B -> 68B        0.25071

 Excited State  36:  2.045-A      6.2077 eV  199.73 nm  f=0.0014  <S**2>=0.796
     65A -> 71A       -0.24874
     65A -> 72A        0.93344
     65A -> 73A        0.17572

 The electronic state is 2-A.
 Alpha  occ. eigenvalues --  -19.17664 -19.14119 -10.28096 -10.25106 -10.20121
 Alpha  occ. eigenvalues --  -10.20068 -10.20024 -10.19731 -10.19625 -10.19612
 Alpha  occ. eigenvalues --  -10.19594 -10.18929 -10.18755 -10.18712 -10.18658
 Alpha  occ. eigenvalues --  -10.18635 -10.18351 -10.18266  -1.05923  -1.03602
 Alpha  occ. eigenvalues --   -0.86141  -0.85221  -0.78069  -0.77292  -0.75218
 Alpha  occ. eigenvalues --   -0.74405  -0.72903  -0.72475  -0.64871  -0.63005
 Alpha  occ. eigenvalues --   -0.60783  -0.59980  -0.57353  -0.55240  -0.51932
 Alpha  occ. eigenvalues --   -0.51133  -0.49871  -0.46677  -0.46529  -0.46000
 Alpha  occ. eigenvalues --   -0.45954  -0.44511  -0.44199  -0.42893  -0.42707
 Alpha  occ. eigenvalues --   -0.42324  -0.41705  -0.41509  -0.38932  -0.38821
 Alpha  occ. eigenvalues --   -0.38243  -0.37515  -0.36864  -0.35816  -0.35546
 Alpha  occ. eigenvalues --   -0.34723  -0.34521  -0.33915  -0.32284  -0.27288
 Alpha  occ. eigenvalues --   -0.26089  -0.25859  -0.25553  -0.25104  -0.15534
 Alpha virt. eigenvalues --   -0.05886  -0.00898  -0.00079   0.02422   0.03695
 Alpha virt. eigenvalues --    0.08589   0.09879   0.11396   0.12440   0.13488
 Alpha virt. eigenvalues --    0.13671   0.15000   0.15208   0.15802   0.15956

  Beta  occ. eigenvalues --  -19.17406 -19.14071 -10.28073 -10.24204 -10.20126
  Beta  occ. eigenvalues --  -10.20057 -10.19995 -10.19785 -10.19710 -10.19637
  Beta  occ. eigenvalues --  -10.19621 -10.18878 -10.18846 -10.18648 -10.18408
  Beta  occ. eigenvalues --  -10.18368 -10.18360 -10.18266  -1.05239  -1.03466
  Beta  occ. eigenvalues --   -0.86112  -0.84904  -0.77493  -0.77057  -0.75194
  Beta  occ. eigenvalues --   -0.74131  -0.72845  -0.72173  -0.63996  -0.62938
  Beta  occ. eigenvalues --   -0.60767  -0.59804  -0.57040  -0.55209  -0.51687
  Beta  occ. eigenvalues --   -0.51090  -0.49100  -0.46516  -0.46230  -0.45805
  Beta  occ. eigenvalues --   -0.45403  -0.44496  -0.44119  -0.42696  -0.42613
  Beta  occ. eigenvalues --   -0.41953  -0.41643  -0.41211  -0.38897  -0.38411
  Beta  occ. eigenvalues --   -0.37691  -0.37295  -0.36319  -0.35748  -0.35323
  Beta  occ. eigenvalues --   -0.34540  -0.34361  -0.33497  -0.31677  -0.26472
  Beta  occ. eigenvalues --   -0.25889  -0.25598  -0.24971  -0.24519
  Beta virt. eigenvalues --   -0.07797  -0.04554  -0.00799   0.00505   0.03462
  Beta virt. eigenvalues --    0.05155   0.08759   0.09953   0.11515   0.12495
  Beta virt. eigenvalues --    0.13550   0.13875   0.15041   0.15585   0.15872

 Mulliken charges and spin densities:
               1          2
     1  C    0.390895   0.020220
     2  C    0.239601   0.588555
     3  O   -0.540432   0.018290
     4  C   -0.393321  -0.001477
     5  H    0.141385   0.000003
     6  H    0.147854   0.001981
     7  H    0.126694   0.000063
     8  C   -0.372063  -0.048750
     9  H    0.130942   0.003022
    10  H    0.129201   0.017477
    11  H    0.132912   0.034304
    12  C    0.062499  -0.010336
    13  C   -0.112357   0.020608
    14  C   -0.112745   0.015283
    15  C   -0.101526  -0.010145
    16  H    0.111245  -0.000951
    17  C   -0.105503  -0.010157
    18  H    0.110809  -0.000654
    19  C   -0.089423   0.022463
    20  H    0.108673   0.000352
    21  H    0.109354   0.000366
    22  H    0.110597  -0.001017
    23  C    0.099103  -0.158609
    24  C   -0.143233   0.219053
    25  C   -0.135775   0.212264
    26  C   -0.101123  -0.115775
    27  H    0.103844  -0.009630
    28  C   -0.108781  -0.114431
    29  H    0.094556  -0.009279
    30  C   -0.110384   0.243981
    31  H    0.097413   0.004134
    32  H    0.097630   0.004064
    33  H    0.095561  -0.011296
    34  O   -0.553960   0.068384
    35  H    0.339858   0.007635
 Sum of Mulliken charges =  -0.00000   1.00000

 Dipole moment (field-independent basis, Debye):
    X=             -1.0933    Y=              3.0937    Z=             -0.3089  Tot=              3.2957
 Quadrupole moment (field-independent basis, Debye-Ang):
   XX=           -106.5977   YY=           -102.4977   ZZ=            -98.9931
   XY=             -2.9371   XZ=             -7.7388   YZ=              0.5050

 Normal termination of Gaussian 16 at Sat May 25 04:47:12 2019.
