 Gaussian 16, Revision B.01,
 Gaussian 16:  ES64L-G16RevB.01 20-Dec-2017

 ----------------------------------------------------------------------
 #p td=(50-50,nstates=36) ub3lyp/6-31g(d,p) scrf=(iefpcm,solvent=aceton
 itrile) guess=(mix,always) empiricaldispersion=gd3
 ----------------------------------------------------------------------

 -------------------
 Title Card Required
 -------------------
 Symbolic Z-matrix:
 Charge =  0 Multiplicity = 2

                         Standard orientation:
 ---------------------------------------------------------------------
 Center     Atomic      Atomic             Coordinates (Angstroms)
 Number     Number       Type             X           Y           Z
 ---------------------------------------------------------------------
      1          6           0       -1.314061   -1.440292   -0.988682
      2          6           0        0.791210   -1.304437    1.144245
      3          8           0       -1.726587   -2.418732   -0.357584
      4          6           0       -0.367737   -1.626384   -2.152787
      5          1           0       -0.775938   -1.168555   -3.059439
      6          1           0        0.594141   -1.147238   -1.945248
      7          1           0       -0.207751   -2.692241   -2.315173
      8          6           0       -0.229279   -1.170405    2.226589
      9          1           0       -0.530412   -0.136335    2.392056
     10          1           0       -1.128896   -1.735897    1.956829
     11          1           0        0.146601   -1.579137    3.174755
     12          6           0       -1.745044   -0.062182   -0.620709
     13          6           0       -2.781746    0.094832    0.315608
     14          6           0       -1.125958    1.080677   -1.153586
     15          6           0       -3.188550    1.364567    0.712960
     16          1           0       -3.253996   -0.793839    0.719574
     17          6           0       -1.528237    2.352042   -0.747724
     18          1           0       -0.313323    0.983519   -1.864340
     19          6           0       -2.559586    2.496975    0.183504
     20          1           0       -3.992287    1.475851    1.434361
     21          1           0       -1.032905    3.228643   -1.153255
     22          1           0       -2.872311    3.488470    0.497082
     23          6           0        1.646646   -0.283841    0.653694
     24          6           0        2.610871   -0.567687   -0.360472
     25          6           0        1.560974    1.063267    1.111913
     26          6           0        3.413729    0.435266   -0.885713
     27          1           0        2.706937   -1.585923   -0.718782
     28          6           0        2.371491    2.053595    0.576094
     29          1           0        0.846394    1.327992    1.882795
     30          6           0        3.304346    1.755923   -0.427950
     31          1           0        4.135523    0.188977   -1.659781
     32          1           0        2.276202    3.072599    0.940823
     33          1           0        3.933703    2.536757   -0.843190
     34          8           0        0.997967   -2.566940    0.659193
     35          1           0        0.142873   -3.029760    0.626148
 ---------------------------------------------------------------------

 SCF Done:  E(UB3LYP) =  -770.430908183     A.U. after   20 cycles

 Excitation energies and oscillator strengths:

 Excited State   1:  2.034-A      1.9003 eV  652.44 nm  f=0.0681  <S**2>=0.785
     65A -> 66A        0.99749
 This state for optimization and/or second-order correction.
 Total Energy, E(TD-HF/TD-DFT) =  -770.361072428
 Copying the excited state density for this state as the 1-particle RhoCI density.

 Excited State   2:  2.066-A      2.9931 eV  414.23 nm  f=0.0020  <S**2>=0.817
     65A -> 67A        0.38535
     65A -> 68A        0.85340
     64B -> 65B        0.27430
     64B -> 66B        0.15657

 Excited State   3:  2.682-A      3.2587 eV  380.47 nm  f=0.0004  <S**2>=1.548
     63A -> 66A        0.35721
     65A -> 67A        0.64325
     65A -> 68A       -0.26126
     65A -> 69A        0.17339
     60B -> 65B        0.16935
     62B -> 65B        0.40951
     62B -> 66B       -0.20378
     63B -> 66B        0.19904
     64B -> 65B       -0.12520

 Excited State   4:  2.781-A      3.2628 eV  379.99 nm  f=0.0027  <S**2>=1.684
     60A -> 66A        0.12983
     63A -> 66A       -0.37648
     65A -> 67A        0.45815
     65A -> 68A       -0.20632
     65A -> 69A        0.23851
     65A -> 70A        0.12688
     60B -> 66B        0.16972
     62B -> 65B       -0.33597
     62B -> 66B        0.23491
     63B -> 65B        0.49213

 Excited State   5:  2.959-A      3.3607 eV  368.92 nm  f=0.0011  <S**2>=1.938
     60A -> 66A        0.13527
     61A -> 66A       -0.16347
     62A -> 66A       -0.37096
     65A -> 67A       -0.26432
     65A -> 68A        0.11065
     65A -> 69A        0.26557
     65A -> 70A        0.12637
     60B -> 65B       -0.10774
     60B -> 66B        0.19067
     61B -> 65B       -0.38052
     61B -> 66B        0.22292
     62B -> 65B        0.38419
     62B -> 66B       -0.14573
     62B -> 69B        0.10400
     63B -> 65B        0.36991

 Excited State   6:  2.624-A      3.3954 eV  365.15 nm  f=0.0009  <S**2>=1.471
     61A -> 66A        0.11079
     61A -> 67A       -0.11357
     62A -> 66A        0.28410
     63A -> 66A        0.14607
     65A -> 67A       -0.37936
     65A -> 68A        0.12064
     65A -> 69A        0.46796
     65A -> 70A        0.10725
     60B -> 65B        0.36293
     61B -> 65B        0.25467
     61B -> 66B       -0.12875
     63B -> 65B        0.27899
     63B -> 66B        0.30698
     64B -> 68B        0.10407

 Excited State   7:  2.429-A      3.7439 eV  331.16 nm  f=0.0116  <S**2>=1.225
     61A -> 66A       -0.24549
     63A -> 66A        0.11666
     65A -> 68A       -0.29409
     61B -> 65B       -0.15961
     61B -> 66B        0.12021
     64B -> 65B        0.85543

 Excited State   8:  2.258-A      3.8082 eV  325.57 nm  f=0.0002  <S**2>=1.024
     62A -> 66A        0.54981
     63A -> 66A       -0.52546
     64A -> 66A       -0.27103
     61B -> 65B       -0.32837
     61B -> 66B        0.12888
     62B -> 65B        0.39180
     62B -> 66B       -0.11679
     63B -> 65B       -0.11680

 Excited State   9:  2.928-A      3.8845 eV  319.18 nm  f=0.0039  <S**2>=1.893
     61A -> 66A        0.33130
     63A -> 66A       -0.17259
     64A -> 66A        0.37452
     65A -> 68A       -0.15106
     60B -> 65B       -0.33039
     61B -> 65B        0.43518
     61B -> 66B       -0.14670
     62B -> 65B        0.34583
     63B -> 65B        0.15753
     64B -> 65B        0.26866
     64B -> 66B        0.27959

 Excited State  10:  2.363-A      4.2574 eV  291.22 nm  f=0.0853  <S**2>=1.146
     61A -> 67A        0.17603
     62A -> 66A       -0.16347
     63A -> 66A       -0.19360
     64A -> 66A        0.20090
     64A -> 68A       -0.14051
     65A -> 69A        0.62348
     65A -> 70A       -0.18840
     60B -> 65B        0.10599
     60B -> 67B        0.12273
     61B -> 67B       -0.12668
     63B -> 65B       -0.51534
     64B -> 68B       -0.22024

 Excited State  11:  3.369-A      4.3548 eV  284.70 nm  f=0.0029  <S**2>=2.588
     61A -> 67A        0.15672
     61A -> 68A       -0.27757
     62A -> 68A        0.15650
     64A -> 67A        0.31630
     64A -> 68A        0.39923
     65A -> 69A       -0.11797
     60B -> 67B        0.12279
     60B -> 68B       -0.10142
     61B -> 67B       -0.18254
     61B -> 68B        0.10962
     62B -> 68B        0.11301
     63B -> 65B       -0.28355
     63B -> 66B        0.14586
     64B -> 67B        0.22594
     64B -> 68B        0.51927

 Excited State  12:  2.939-A      4.4210 eV  280.44 nm  f=0.0046  <S**2>=1.909
     60A -> 67A        0.10760
     61A -> 67A        0.33975
     62A -> 66A        0.14253
     63A -> 66A        0.18288
     64A -> 67A        0.20370
     64A -> 68A       -0.27196
     65A -> 69A       -0.18982
     65A -> 70A        0.50801
     60B -> 65B        0.28210
     60B -> 67B        0.17811
     61B -> 65B        0.15512
     61B -> 67B       -0.29391
     62B -> 65B        0.13780
     62B -> 67B       -0.16566
     64B -> 67B        0.12455
     64B -> 68B       -0.26339

 Excited State  13:  2.351-A      4.4375 eV  279.40 nm  f=0.0055  <S**2>=1.132
     61A -> 66A        0.28081
     61A -> 67A       -0.12876
     64A -> 66A        0.35440
     64A -> 67A       -0.10182
     65A -> 70A        0.65749
     60B -> 66B        0.10325
     61B -> 65B       -0.32638
     61B -> 67B        0.18160
     62B -> 65B       -0.23727
     62B -> 67B        0.10943
     63B -> 65B       -0.23445
     63B -> 66B        0.13445

 Excited State  14:  2.428-A      4.4873 eV  276.30 nm  f=0.0682  <S**2>=1.224
     61A -> 66A        0.25664
     61A -> 67A        0.12279
     62A -> 66A        0.17898
     64A -> 66A        0.42689
     65A -> 69A       -0.14458
     65A -> 70A       -0.39676
     60B -> 65B        0.39474
     60B -> 67B        0.14331
     61B -> 65B       -0.40648
     62B -> 65B       -0.16713
     62B -> 66B       -0.12432
     63B -> 65B        0.25484
     64B -> 66B        0.10150

 Excited State  15:  3.014-A      4.6004 eV  269.51 nm  f=0.0118  <S**2>=2.021
     61A -> 66A       -0.30787
     62A -> 66A        0.23169
     60B -> 65B       -0.18380
     62B -> 65B       -0.20386
     63B -> 66B        0.30370
     64B -> 65B       -0.21723
     64B -> 66B        0.73865

 Excited State  16:  2.785-A      4.6360 eV  267.44 nm  f=0.0269  <S**2>=1.689
     61A -> 66A       -0.31997
     61A -> 67A       -0.12414
     63A -> 66A       -0.19596
     64A -> 66A        0.24162
     65A -> 70A        0.10506
     60B -> 65B        0.48685
     61B -> 66B        0.10496
     61B -> 67B        0.13959
     62B -> 65B        0.24075
     62B -> 66B        0.38283
     63B -> 66B       -0.35455
     64B -> 65B       -0.12767
     64B -> 66B        0.27554

 Excited State  17:  2.485-A      4.7021 eV  263.68 nm  f=0.0018  <S**2>=1.293
     61A -> 66A       -0.34599
     62A -> 66A        0.29788
     63A -> 66A        0.11455
     64A -> 66A        0.43494
     60B -> 65B       -0.30241
     60B -> 66B       -0.10024
     61B -> 66B       -0.16152
     62B -> 65B        0.19237
     62B -> 66B        0.44507
     63B -> 66B        0.21570
     64B -> 66B       -0.36290

 Excited State  18:  2.228-A      4.7315 eV  262.04 nm  f=0.0165  <S**2>=0.991
     61A -> 66A        0.32526
     62A -> 66A       -0.14829
     63A -> 66A        0.14820
     64A -> 66A       -0.34776
     60B -> 65B       -0.10714
     61B -> 65B       -0.32389
     61B -> 66B       -0.42404
     62B -> 65B        0.17213
     62B -> 66B        0.53429
     64B -> 66B        0.29657

 Excited State  19:  2.881-A      4.9033 eV  252.86 nm  f=0.1257  <S**2>=1.825
     60A -> 66A        0.49480
     61A -> 66A        0.14086
     64A -> 68A       -0.16689
     65A -> 69A       -0.24947
     65A -> 70A       -0.19082
     60B -> 65B        0.15929
     60B -> 66B        0.31222
     61B -> 66B        0.27204
     61B -> 67B        0.10381
     62B -> 66B        0.21983
     63B -> 66B        0.50228

 Excited State  20:  2.540-A      4.9809 eV  248.92 nm  f=0.0255  <S**2>=1.363
     60A -> 66A       -0.40069
     61A -> 66A        0.30868
     61A -> 67A        0.12675
     62A -> 66A       -0.21778
     62A -> 67A        0.13134
     63A -> 66A       -0.15176
     63A -> 67A        0.19520
     60B -> 66B       -0.44917
     61B -> 66B        0.47590
     62B -> 66B        0.24511
     63B -> 66B        0.20265

 Excited State  21:  2.147-A      5.0736 eV  244.37 nm  f=0.1815  <S**2>=0.902
     60A -> 66A        0.41138
     61A -> 66A        0.15007
     62A -> 66A        0.31575
     63A -> 66A        0.34721
     65A -> 69A        0.23380
     60B -> 65B       -0.16677
     60B -> 66B       -0.14088
     61B -> 66B        0.46156
     62B -> 66B        0.13058
     63B -> 66B       -0.42980

 Excited State  22:  3.430-A      5.1600 eV  240.28 nm  f=0.0032  <S**2>=2.691
     60A -> 66A        0.17109
     60A -> 67A       -0.21495
     61A -> 67A        0.18334
     62A -> 67A        0.31671
     63A -> 67A        0.47255
     60B -> 67B       -0.42007
     61B -> 66B       -0.18173
     61B -> 67B       -0.26750
     62B -> 67B       -0.20059
     63B -> 67B        0.41734

 Excited State  23:  2.092-A      5.2901 eV  234.37 nm  f=0.0927  <S**2>=0.844
     60A -> 66A       -0.52993
     61A -> 66A        0.13425
     62A -> 66A        0.15542
     63A -> 66A        0.19269
     64A -> 67A       -0.10186
     60B -> 66B        0.68418
     61B -> 66B        0.22002
     62B -> 66B        0.14806
     63B -> 66B       -0.10841

 Excited State  24:  2.780-A      5.3760 eV  230.62 nm  f=0.0094  <S**2>=1.682
     53A -> 66A        0.12197
     55A -> 66A        0.17274
     56A -> 66A        0.28055
     60A -> 66A       -0.11895
     63A -> 70A       -0.11904
     53B -> 65B        0.15416
     53B -> 66B       -0.10131
     55B -> 65B        0.14911
     55B -> 66B       -0.11180
     57B -> 65B        0.21828
     57B -> 66B       -0.17752
     59B -> 65B        0.68669
     59B -> 66B        0.17613
     60B -> 69B        0.10745
     63B -> 69B       -0.11956

 Excited State  25:  2.816-A      5.3951 eV  229.81 nm  f=0.0031  <S**2>=1.733
     53A -> 66A       -0.11666
     55A -> 66A       -0.17708
     56A -> 66A       -0.30506
     62A -> 70A        0.10901
     63A -> 70A        0.13908
     53B -> 65B       -0.13300
     53B -> 66B        0.10694
     55B -> 65B       -0.19074
     55B -> 66B        0.12561
     57B -> 65B       -0.31412
     57B -> 66B        0.15110
     59B -> 65B        0.61243
     59B -> 66B        0.24127
     60B -> 69B       -0.12625
     61B -> 69B       -0.10173

 Excited State  26:  3.405-A      5.4844 eV  226.07 nm  f=0.0027  <S**2>=2.648
     60A -> 67A        0.13216
     60A -> 68A        0.38869
     62A -> 68A        0.25011
     63A -> 68A        0.25318
     64A -> 69A        0.16576
     60B -> 68B        0.26951
     62B -> 68B        0.12032
     63B -> 67B        0.14657
     63B -> 68B        0.68613

 Excited State  27:  2.054-A      5.5210 eV  224.57 nm  f=0.0006  <S**2>=0.805
     65A -> 71A        0.94091
     65A -> 72A        0.26177
     65A -> 73A        0.12301

 Excited State  28:  3.092-A      5.8621 eV  211.50 nm  f=0.0027  <S**2>=2.140
     61A -> 67A       -0.12012
     62A -> 67A       -0.21750
     63A -> 67A        0.17009
     61B -> 67B        0.45497
     62B -> 67B       -0.40466
     63B -> 67B        0.21691
     64B -> 67B        0.68414

 Excited State  29:  2.813-A      5.8781 eV  210.93 nm  f=0.0029  <S**2>=1.729
     61A -> 67A       -0.20753
     62A -> 67A       -0.55726
     63A -> 67A        0.58285
     64A -> 67A        0.31062
     62B -> 67B       -0.10286
     63B -> 67B       -0.12012
     64B -> 67B       -0.38737

 Excited State  30:  2.479-A      5.9135 eV  209.66 nm  f=0.0041  <S**2>=1.287
     62A -> 67A       -0.14954
     63A -> 67A        0.27593
     60B -> 67B       -0.14420
     61B -> 67B       -0.26105
     62B -> 67B        0.72841
     64B -> 67B        0.48509

 Excited State  31:  2.361-A      5.9346 eV  208.92 nm  f=0.0012  <S**2>=1.143
     60A -> 69A        0.20918
     62A -> 69A        0.12560
     63A -> 69A        0.12042
     58B -> 65B        0.82262
     58B -> 66B        0.30914
     63B -> 70B        0.21039

 Excited State  32:  2.598-A      6.0200 eV  205.95 nm  f=0.0460  <S**2>=1.438
     60A -> 68A       -0.10484
     61A -> 67A       -0.15701
     62A -> 67A       -0.10690
     62A -> 68A       -0.10906
     63A -> 67A       -0.24736
     63A -> 68A       -0.10627
     64A -> 67A        0.37342
     64A -> 69A        0.14482
     60B -> 67B        0.21074
     62B -> 67B        0.20354
     63B -> 67B        0.73878

 Excited State  33:  2.883-A      6.0513 eV  204.89 nm  f=0.0030  <S**2>=1.828
     60A -> 69A        0.35969
     60A -> 70A        0.12778
     61A -> 69A       -0.12686
     62A -> 67A        0.13178
     62A -> 69A        0.23102
     63A -> 69A        0.21771
     65A -> 78A        0.11489
     53B -> 65B       -0.19723
     56B -> 65B       -0.10777
     57B -> 65B        0.32025
     57B -> 66B        0.15695
     58B -> 65B       -0.38935
     58B -> 66B       -0.10186
     60B -> 70B        0.16597
     63B -> 69B       -0.13973
     63B -> 70B        0.39243
     64B -> 68B       -0.11178

 Excited State  34:  2.923-A      6.0714 eV  204.21 nm  f=0.0005  <S**2>=1.886
     60A -> 67A       -0.17007
     61A -> 67A       -0.29710
     61A -> 68A        0.13219
     62A -> 67A        0.36132
     62A -> 68A       -0.18533
     63A -> 68A       -0.12470
     64A -> 67A        0.59625
     64A -> 69A        0.22299
     60B -> 67B       -0.24823
     61B -> 67B        0.10046
     63B -> 67B       -0.32808
     63B -> 68B        0.10787

 Excited State  35:  2.674-A      6.1652 eV  201.10 nm  f=0.0029  <S**2>=1.538
     60A -> 68A       -0.18324
     61A -> 67A        0.20778
     61A -> 69A       -0.19767
     62A -> 67A       -0.29122
     62A -> 68A       -0.22697
     62A -> 69A        0.14720
     63A -> 68A       -0.35855
     64A -> 67A       -0.28233
     64A -> 68A        0.17924
     64A -> 69A        0.47558
     64A -> 70A        0.12131
     65A -> 72A        0.30723
     63B -> 68B        0.23779

 Excited State  36:  2.103-A      6.1706 eV  200.93 nm  f=0.0026  <S**2>=0.856
     62A -> 68A        0.10515
     63A -> 68A        0.14854
     64A -> 69A       -0.14686
     65A -> 71A       -0.22657
     65A -> 72A        0.88358
     65A -> 73A       -0.19402
     63B -> 68B       -0.10597

 The electronic state is 2-A.
 Alpha  occ. eigenvalues --  -19.17696 -19.14236 -10.28179 -10.25002 -10.20161
 Alpha  occ. eigenvalues --  -10.20108 -10.20055 -10.19774 -10.19650 -10.19641
 Alpha  occ. eigenvalues --  -10.19542 -10.18857 -10.18696 -10.18649 -10.18577
 Alpha  occ. eigenvalues --  -10.18563 -10.18390 -10.18335  -1.05875  -1.03734
 Alpha  occ. eigenvalues --   -0.86168  -0.85146  -0.78010  -0.77347  -0.75246
 Alpha  occ. eigenvalues --   -0.74340  -0.72931  -0.72480  -0.64865  -0.63032
 Alpha  occ. eigenvalues --   -0.60810  -0.59923  -0.57322  -0.55269  -0.51883
 Alpha  occ. eigenvalues --   -0.51162  -0.49805  -0.46618  -0.46521  -0.46020
 Alpha  occ. eigenvalues --   -0.45902  -0.44535  -0.44168  -0.42958  -0.42699
 Alpha  occ. eigenvalues --   -0.42363  -0.41727  -0.41546  -0.38972  -0.38769
 Alpha  occ. eigenvalues --   -0.38232  -0.37523  -0.36823  -0.35841  -0.35538
 Alpha  occ. eigenvalues --   -0.34777  -0.34566  -0.33913  -0.32346  -0.27216
 Alpha  occ. eigenvalues --   -0.26087  -0.25894  -0.25563  -0.25124  -0.15385
 Alpha virt. eigenvalues --   -0.05952  -0.00893  -0.00069   0.02577   0.03619
 Alpha virt. eigenvalues --    0.08524   0.09851   0.11303   0.12388   0.13482
 Alpha virt. eigenvalues --    0.13633   0.15008   0.15199   0.15909   0.15942

  Beta  occ. eigenvalues --  -19.17435 -19.14205 -10.28159 -10.24093 -10.20164
  Beta  occ. eigenvalues --  -10.20100 -10.20030 -10.19756 -10.19735 -10.19660
  Beta  occ. eigenvalues --  -10.19649 -10.18826 -10.18790 -10.18570 -10.18449
  Beta  occ. eigenvalues --  -10.18336 -10.18289 -10.18264  -1.05186  -1.03630
  Beta  occ. eigenvalues --   -0.86144  -0.84819  -0.77475  -0.77064  -0.75225
  Beta  occ. eigenvalues --   -0.74059  -0.72889  -0.72168  -0.63968  -0.62977
  Beta  occ. eigenvalues --   -0.60797  -0.59742  -0.57004  -0.55245  -0.51637
  Beta  occ. eigenvalues --   -0.51128  -0.49058  -0.46558  -0.46232  -0.45783
  Beta  occ. eigenvalues --   -0.45326  -0.44522  -0.44092  -0.42717  -0.42614
  Beta  occ. eigenvalues --   -0.41961  -0.41655  -0.41277  -0.38944  -0.38405
  Beta  occ. eigenvalues --   -0.37688  -0.37254  -0.36291  -0.35784  -0.35319
  Beta  occ. eigenvalues --   -0.34576  -0.34427  -0.33448  -0.31780  -0.26435
  Beta  occ. eigenvalues --   -0.25946  -0.25625  -0.24940  -0.24493
  Beta virt. eigenvalues --   -0.07573  -0.04716  -0.00811   0.00533   0.03494
  Beta virt. eigenvalues --    0.05168   0.08703   0.09924   0.11417   0.12444
  Beta virt. eigenvalues --    0.13548   0.13836   0.15052   0.15537   0.15976

 Mulliken charges and spin densities:
               1          2
     1  C    0.394566   0.015935
     2  C    0.242693   0.593442
     3  O   -0.535000   0.011894
     4  C   -0.396628  -0.000983
     5  H    0.141096  -0.000122
     6  H    0.150071   0.002025
     7  H    0.127681   0.000039
     8  C   -0.375820  -0.050291
     9  H    0.130771   0.002810
    10  H    0.129708   0.019407
    11  H    0.132941   0.034159
    12  C    0.059723  -0.008366
    13  C   -0.111404   0.017668
    14  C   -0.112384   0.012594
    15  C   -0.101638  -0.008664
    16  H    0.111617  -0.000817
    17  C   -0.104662  -0.008619
    18  H    0.111276  -0.000555
    19  C   -0.089005   0.019288
    20  H    0.109023   0.000300
    21  H    0.109636   0.000308
    22  H    0.110946  -0.000873
    23  C    0.098091  -0.159931
    24  C   -0.143848   0.224092
    25  C   -0.136968   0.216753
    26  C   -0.101850  -0.118388
    27  H    0.103078  -0.009880
    28  C   -0.108747  -0.116705
    29  H    0.093687  -0.009488
    30  C   -0.111583   0.250304
    31  H    0.096619   0.004229
    32  H    0.096815   0.004146
    33  H    0.094573  -0.011607
    34  O   -0.554472   0.068744
    35  H    0.339399   0.007154
 Sum of Mulliken charges =  -0.00000   1.00000

 Dipole moment (field-independent basis, Debye):
    X=             -1.1732    Y=              3.0347    Z=             -0.3368  Tot=              3.2710
 Quadrupole moment (field-independent basis, Debye-Ang):
   XX=           -107.5771   YY=           -102.2256   ZZ=            -98.3652
   XY=             -2.8697   XZ=             -7.5937   YZ=              0.8104

 Normal termination of Gaussian 16 at Sat May 25 04:46:21 2019.
