 Gaussian 16, Revision B.01,
 Gaussian 16:  ES64L-G16RevB.01 20-Dec-2017

 ----------------------------------------------------------------------
 #p td=(50-50,nstates=36) ub3lyp/6-31g(d,p) scrf=(iefpcm,solvent=aceton
 itrile) guess=(mix,always) empiricaldispersion=gd3
 ----------------------------------------------------------------------

 -------------------
 Title Card Required
 -------------------
 Symbolic Z-matrix:
 Charge =  0 Multiplicity = 2

                         Standard orientation:
 ---------------------------------------------------------------------
 Center     Atomic      Atomic             Coordinates (Angstroms)
 Number     Number       Type             X           Y           Z
 ---------------------------------------------------------------------
      1          6           0        0.716628   -1.352672    0.717632
      2          6           0       -0.691849   -1.273398   -0.700080
      3          8           0        1.170760   -2.508793    0.399411
      4          6           0       -0.129351   -1.304613    1.996915
      5          1           0        0.560001   -1.410390    2.841191
      6          1           0       -0.693750   -0.382099    2.125553
      7          1           0       -0.819854   -2.148055    2.001993
      8          6           0        0.117460   -1.285016   -1.984725
      9          1           0        0.723641   -0.390176   -2.114028
     10          1           0        0.779274   -2.151512   -1.990681
     11          1           0       -0.582277   -1.360485   -2.824038
     12          6           0        1.601394   -0.154003    0.453902
     13          6           0        2.790276   -0.341748   -0.269703
     14          6           0        1.294058    1.135666    0.915203
     15          6           0        3.643211    0.727147   -0.534012
     16          1           0        3.028573   -1.342000   -0.613510
     17          6           0        2.148356    2.207732    0.652349
     18          1           0        0.381483    1.315321    1.470615
     19          6           0        3.323679    2.008929   -0.074842
     20          1           0        4.559078    0.562228   -1.094203
     21          1           0        1.892693    3.198999    1.014875
     22          1           0        3.986853    2.844172   -0.279680
     23          6           0       -1.576600   -0.122604   -0.444811
     24          6           0       -2.746122   -0.281643    0.328643
     25          6           0       -1.275010    1.159914   -0.947018
     26          6           0       -3.582607    0.800273    0.583779
     27          1           0       -2.987477   -1.262746    0.718507
     28          6           0       -2.112850    2.240394   -0.685601
     29          1           0       -0.378472    1.318251   -1.533146
     30          6           0       -3.269147    2.067163    0.080568
     31          1           0       -4.480929    0.657243    1.176565
     32          1           0       -1.862240    3.220329   -1.079849
     33          1           0       -3.920312    2.911817    0.283809
     34          8           0       -1.309944   -2.473669   -0.442011
     35          1           0       -0.581978   -3.110334   -0.292368
 ---------------------------------------------------------------------

 SCF Done:  E(UB3LYP) =  -770.400802151     A.U. after   20 cycles

 Excitation energies and oscillator strengths:

 Excited State   1:  2.042-A      1.4447 eV  858.19 nm  f=0.0017  <S**2>=0.792
     63B -> 65B       -0.22698
     64B -> 65B        0.95199
 This state for optimization and/or second-order correction.
 Total Energy, E(TD-HF/TD-DFT) =  -770.347709702
 Copying the excited state density for this state as the 1-particle RhoCI density.

 Excited State   2:  2.075-A      2.4282 eV  510.61 nm  f=0.0201  <S**2>=0.827
     63B -> 65B        0.95181
     64B -> 65B        0.22144

 Excited State   3:  2.060-A      2.6188 eV  473.44 nm  f=0.0043  <S**2>=0.811
     60B -> 65B        0.11332
     62B -> 65B        0.97140
     64B -> 65B       -0.10093

 Excited State   4:  2.112-A      2.8274 eV  438.50 nm  f=0.0235  <S**2>=0.865
     65A -> 66A       -0.13933
     65A -> 68A       -0.11431
     60B -> 65B       -0.21039
     61B -> 65B        0.93825

 Excited State   5:  2.151-A      3.0239 eV  410.02 nm  f=0.0309  <S**2>=0.907
     65A -> 66A        0.21840
     65A -> 68A        0.14553
     60B -> 65B        0.87269
     61B -> 65B        0.26813
     62B -> 65B       -0.16474

 Excited State   6:  2.376-A      3.5017 eV  354.06 nm  f=0.0195  <S**2>=1.161
     62A -> 66A       -0.11473
     62A -> 68A        0.11779
     63A -> 67A        0.10644
     63A -> 69A       -0.10704
     65A -> 66A        0.49250
     65A -> 68A       -0.10890
     59B -> 65B        0.72764
     60B -> 65B       -0.19234
     62B -> 67B       -0.11402
     63B -> 66B        0.15614
     63B -> 69B        0.13070

 Excited State   7:  2.593-A      3.7304 eV  332.36 nm  f=0.0987  <S**2>=1.431
     62A -> 66A        0.14280
     62A -> 68A       -0.12737
     63A -> 67A       -0.17061
     63A -> 69A        0.15562
     64A -> 66A        0.12548
     64A -> 68A       -0.10601
     65A -> 66A       -0.45367
     58B -> 65B       -0.23124
     59B -> 65B        0.63686
     61B -> 68B        0.10401
     62B -> 67B        0.17514
     62B -> 68B       -0.13343
     63B -> 66B       -0.19962
     63B -> 69B       -0.15195

 Excited State   8:  3.029-A      3.9378 eV  314.85 nm  f=0.1164  <S**2>=2.044
     60A -> 68A        0.14276
     61A -> 67A        0.29257
     62A -> 66A        0.19712
     63A -> 69A        0.27595
     64A -> 66A        0.19435
     65A -> 66A        0.40462
     65A -> 68A        0.25468
     60B -> 65B       -0.31571
     60B -> 66B        0.10720
     60B -> 67B       -0.11963
     60B -> 69B       -0.14076
     61B -> 65B        0.10481
     61B -> 66B       -0.10630
     61B -> 67B       -0.24992
     62B -> 68B       -0.24455
     62B -> 69B       -0.10445
     63B -> 66B       -0.26431
     63B -> 69B       -0.10999
     64B -> 66B       -0.17642

 Excited State   9:  2.539-A      4.1166 eV  301.18 nm  f=0.0068  <S**2>=1.361
     60A -> 66A       -0.14288
     61A -> 67A       -0.14964
     61A -> 69A       -0.15251
     63A -> 67A       -0.21934
     64A -> 67A       -0.10133
     65A -> 66A        0.14900
     65A -> 67A       -0.10587
     65A -> 68A       -0.15183
     58B -> 65B        0.76783
     60B -> 66B       -0.11685
     61B -> 67B        0.11741
     61B -> 68B        0.15772
     62B -> 67B        0.23203

 Excited State  10:  2.317-A      4.2523 eV  291.57 nm  f=0.0055  <S**2>=1.092
     65A -> 67A        0.92352
     65A -> 69A        0.11049
     60B -> 67B       -0.11134
     61B -> 67B        0.10958
     61B -> 68B        0.10961
     62B -> 66B        0.10553

 Excited State  11:  2.709-A      4.2951 eV  288.66 nm  f=0.0950  <S**2>=1.585
     61A -> 67A        0.25324
     61A -> 69A        0.19064
     63A -> 67A        0.24363
     64A -> 67A        0.12023
     65A -> 66A       -0.49200
     65A -> 67A        0.13344
     58B -> 65B        0.52588
     59B -> 65B        0.12747
     61B -> 67B       -0.20001
     61B -> 68B       -0.19702
     62B -> 67B       -0.28028
     63B -> 67B        0.11420

 Excited State  12:  2.955-A      4.5602 eV  271.88 nm  f=0.0014  <S**2>=1.932
     62A -> 67A        0.17711
     62A -> 69A       -0.16069
     63A -> 66A       -0.27772
     63A -> 68A        0.13748
     64A -> 66A       -0.12065
     64A -> 67A        0.15639
     65A -> 69A        0.67736
     61B -> 66B        0.15202
     62B -> 66B       -0.25908
     62B -> 69B       -0.18930
     63B -> 67B        0.26396
     63B -> 68B       -0.21670
     64B -> 67B        0.12163

 Excited State  13:  2.952-A      4.6225 eV  268.22 nm  f=0.0275  <S**2>=1.928
     61A -> 67A       -0.26731
     62A -> 66A        0.11225
     63A -> 69A       -0.30377
     64A -> 69A       -0.11868
     65A -> 68A        0.62996
     60B -> 67B        0.13125
     61B -> 67B        0.28881
     62B -> 67B       -0.11251
     62B -> 68B        0.32939
     63B -> 66B       -0.21729
     63B -> 69B       -0.10382
     64B -> 66B       -0.14016

 Excited State  14:  3.031-A      4.7145 eV  262.99 nm  f=0.0049  <S**2>=2.047
     61A -> 68A        0.11199
     63A -> 66A        0.21021
     63A -> 67A        0.14032
     63A -> 69A       -0.15288
     64A -> 66A        0.59234
     64A -> 68A       -0.12111
     65A -> 67A       -0.10693
     65A -> 68A       -0.44812
     65A -> 69A        0.24320
     61B -> 69B       -0.10211
     62B -> 66B        0.13408
     62B -> 67B       -0.16863
     62B -> 68B        0.12314
     63B -> 66B       -0.19115
     64B -> 66B       -0.23833

 Excited State  15:  3.015-A      4.7563 eV  260.67 nm  f=0.0057  <S**2>=2.023
     61A -> 68A        0.10488
     62A -> 66A       -0.19085
     62A -> 68A        0.16074
     63A -> 66A        0.55532
     63A -> 68A       -0.17929
     64A -> 66A       -0.12036
     65A -> 67A       -0.14630
     65A -> 68A        0.25988
     65A -> 69A        0.45664
     61B -> 68B        0.10024
     62B -> 66B        0.35649
     62B -> 67B        0.10295
     63B -> 69B        0.10424

 Excited State  16:  3.284-A      4.8544 eV  255.41 nm  f=0.0050  <S**2>=2.445
     60A -> 66A        0.14360
     62A -> 66A       -0.46120
     62A -> 68A        0.16864
     63A -> 66A       -0.31726
     63A -> 67A       -0.14723
     64A -> 66A        0.49269
     65A -> 68A        0.11038
     60B -> 66B        0.13125
     62B -> 67B        0.15395
     63B -> 66B        0.30875
     63B -> 69B        0.15072
     64B -> 66B       -0.27328

 Excited State  17:  2.072-A      4.9241 eV  251.79 nm  f=0.0012  <S**2>=0.823
     48B -> 65B        0.15910
     50B -> 65B        0.17657
     55B -> 65B       -0.39721
     57B -> 65B        0.84722

 Excited State  18:  3.251-A      4.9805 eV  248.94 nm  f=0.0006  <S**2>=2.392
     60A -> 66A        0.10434
     61A -> 66A        0.58694
     61A -> 68A        0.22168
     62A -> 66A        0.10470
     63A -> 66A        0.13092
     63A -> 68A        0.28496
     64A -> 68A        0.18024
     65A -> 69A       -0.31249
     60B -> 66B        0.14004
     60B -> 67B       -0.11580
     61B -> 66B        0.35931
     61B -> 69B       -0.14864
     62B -> 66B        0.14238
     62B -> 69B       -0.18742
     63B -> 67B        0.12848
     63B -> 69B        0.10715
     64B -> 67B        0.10983

 Excited State  19:  2.212-A      5.0189 eV  247.04 nm  f=0.0148  <S**2>=0.973
     62A -> 66A       -0.19374
     63A -> 66A       -0.12408
     64A -> 66A        0.34724
     55B -> 65B       -0.17874
     63B -> 66B       -0.23883
     64B -> 66B        0.82901

 Excited State  20:  3.036-A      5.0521 eV  245.41 nm  f=0.0116  <S**2>=2.055
     60A -> 66A        0.32740
     60A -> 68A        0.19121
     61A -> 66A       -0.18881
     61A -> 67A       -0.15041
     61A -> 68A       -0.13437
     62A -> 66A        0.34685
     63A -> 67A       -0.10004
     64A -> 68A        0.18132
     65A -> 68A       -0.31283
     52B -> 65B       -0.15292
     55B -> 65B       -0.21450
     56B -> 65B        0.22481
     57B -> 65B       -0.21745
     60B -> 66B        0.32408
     60B -> 69B       -0.17254
     61B -> 66B       -0.22747
     61B -> 67B        0.10682
     61B -> 69B        0.15765

 Excited State  21:  2.048-A      5.1147 eV  242.41 nm  f=0.0015  <S**2>=0.799
     55B -> 65B        0.53569
     56B -> 65B        0.79209
     57B -> 65B        0.20574

 Excited State  22:  2.303-A      5.1301 eV  241.68 nm  f=0.0020  <S**2>=1.076
     60A -> 66A        0.12286
     51B -> 65B       -0.12271
     55B -> 65B        0.61120
     56B -> 65B       -0.52031
     57B -> 65B        0.34468
     60B -> 66B        0.11643
     61B -> 66B       -0.10597
     64B -> 66B        0.17944
     64B -> 69B        0.11107

 Excited State  23:  3.182-A      5.1781 eV  239.44 nm  f=0.0009  <S**2>=2.282
     60A -> 66A       -0.10058
     61A -> 66A       -0.10783
     62A -> 66A       -0.10587
     62A -> 67A        0.17670
     62A -> 69A       -0.19206
     64A -> 67A        0.22035
     64A -> 69A       -0.21172
     65A -> 69A       -0.25657
     56B -> 65B        0.10590
     60B -> 66B       -0.19165
     61B -> 66B       -0.15629
     62B -> 66B        0.30853
     62B -> 68B       -0.11069
     62B -> 69B        0.18281
     63B -> 67B        0.45958
     63B -> 68B       -0.35420
     63B -> 69B       -0.14203
     64B -> 67B        0.22638
     64B -> 68B       -0.16012
     64B -> 69B       -0.10472

 Excited State  24:  2.256-A      5.3183 eV  233.13 nm  f=0.0050  <S**2>=1.022
     62A -> 67A       -0.21946
     62A -> 69A        0.21773
     63A -> 66A       -0.38883
     64A -> 66A       -0.10704
     64A -> 67A       -0.31616
     64A -> 69A        0.25008
     65A -> 69A        0.18660
     54B -> 65B        0.37986
     60B -> 67B        0.11971
     62B -> 66B        0.50208
     63B -> 66B       -0.14736
     63B -> 68B       -0.11844

 Excited State  25:  2.102-A      5.3407 eV  232.15 nm  f=0.0012  <S**2>=0.854
     63A -> 66A        0.17216
     64A -> 67A        0.14223
     64A -> 69A       -0.10235
     49B -> 65B        0.10877
     51B -> 65B        0.10595
     54B -> 65B        0.87215
     62B -> 66B       -0.20769

 Excited State  26:  2.874-A      5.4176 eV  228.85 nm  f=0.0017  <S**2>=1.815
     60A -> 67A        0.15604
     62A -> 69A        0.15258
     64A -> 69A        0.19322
     60B -> 67B       -0.27429
     60B -> 68B       -0.14851
     61B -> 66B       -0.27324
     61B -> 67B        0.21276
     61B -> 68B        0.11955
     62B -> 69B        0.11289
     63B -> 66B        0.15418
     63B -> 68B        0.18555
     64B -> 67B        0.72611

 Excited State  27:  3.017-A      5.5180 eV  224.69 nm  f=0.0008  <S**2>=2.025
     60A -> 67A       -0.23473
     61A -> 67A        0.13594
     62A -> 69A       -0.12834
     63A -> 66A        0.11163
     64A -> 67A       -0.21969
     64A -> 69A       -0.18757
     65A -> 67A        0.11475
     60B -> 67B        0.32448
     60B -> 68B        0.14419
     61B -> 66B        0.16992
     61B -> 67B       -0.25283
     61B -> 68B       -0.10980
     62B -> 67B        0.10085
     63B -> 67B       -0.33325
     64B -> 67B        0.47880
     64B -> 68B       -0.40201

 Excited State  28:  2.492-A      5.5315 eV  224.14 nm  f=0.0347  <S**2>=1.303
     60A -> 67A        0.24660
     61A -> 66A       -0.26461
     61A -> 67A       -0.20196
     62A -> 66A       -0.20376
     62A -> 69A        0.14482
     63A -> 66A       -0.21846
     64A -> 66A       -0.17754
     64A -> 67A        0.50595
     65A -> 67A       -0.13597
     61B -> 66B        0.24783
     62B -> 66B        0.12023
     62B -> 69B       -0.10232
     63B -> 66B       -0.34104
     63B -> 67B       -0.24699
     63B -> 69B        0.11929
     64B -> 67B        0.13271

 Excited State  29:  2.214-A      5.6229 eV  220.50 nm  f=0.0700  <S**2>=0.976
     61A -> 66A       -0.12542
     62A -> 66A        0.45215
     63A -> 67A       -0.14384
     63A -> 68A       -0.10636
     63A -> 69A        0.11070
     64A -> 66A        0.18969
     64A -> 67A        0.31479
     50B -> 65B       -0.12310
     52B -> 65B        0.10953
     53B -> 65B        0.19312
     60B -> 67B        0.10391
     61B -> 66B        0.18382
     62B -> 66B        0.26308
     62B -> 68B        0.10425
     63B -> 66B        0.51708
     63B -> 67B       -0.16418
     63B -> 69B       -0.10132
     64B -> 66B        0.13065

 Excited State  30:  2.511-A      5.7106 eV  217.11 nm  f=0.0095  <S**2>=1.326
     64A -> 68A        0.32822
     48B -> 65B       -0.13392
     50B -> 65B       -0.41595
     51B -> 65B        0.20186
     52B -> 65B        0.63219
     57B -> 65B        0.10764
     62B -> 66B       -0.11215
     63B -> 66B       -0.20672
     63B -> 69B        0.18671
     64B -> 69B        0.11932

 Excited State  31:  2.674-A      5.7143 eV  216.97 nm  f=0.0051  <S**2>=1.538
     60A -> 67A        0.15312
     61A -> 66A       -0.25987
     61A -> 67A       -0.13181
     62A -> 67A        0.56138
     62A -> 69A       -0.20340
     63A -> 67A        0.34984
     64A -> 67A       -0.41934
     64A -> 69A        0.29872
     53B -> 65B        0.10202
     61B -> 66B        0.22347
     62B -> 69B       -0.10485
     63B -> 66B        0.12701

 Excited State  32:  3.248-A      5.7534 eV  215.50 nm  f=0.0009  <S**2>=2.388
     62A -> 68A       -0.18526
     63A -> 68A       -0.18324
     64A -> 68A        0.35981
     50B -> 65B        0.18263
     52B -> 65B       -0.15401
     53B -> 65B        0.17530
     60B -> 66B       -0.14420
     63B -> 69B       -0.21457
     64B -> 68B       -0.11429
     64B -> 69B        0.74488

 Excited State  33:  2.249-A      5.7728 eV  214.77 nm  f=0.0152  <S**2>=1.015
     62A -> 66A       -0.16981
     63A -> 68A        0.14603
     53B -> 65B        0.87589
     60B -> 66B        0.12307
     62B -> 67B        0.16729
     62B -> 69B       -0.10955
     64B -> 69B       -0.10406

 Excited State  34:  2.196-A      5.8230 eV  212.92 nm  f=0.0023  <S**2>=0.956
     60A -> 66A       -0.10177
     62A -> 66A        0.11674
     63A -> 67A        0.10257
     63A -> 68A       -0.17626
     64A -> 68A        0.56964
     50B -> 65B        0.47592
     51B -> 65B       -0.24418
     62B -> 67B        0.12470
     63B -> 69B        0.16569
     64B -> 69B       -0.42882

 Excited State  35:  2.175-A      5.8320 eV  212.59 nm  f=0.0101  <S**2>=0.932
     62A -> 66A        0.11069
     62A -> 68A        0.19587
     63A -> 68A        0.14397
     64A -> 68A       -0.39655
     48B -> 65B        0.11488
     50B -> 65B        0.49764
     51B -> 65B       -0.19437
     52B -> 65B        0.51609
     61B -> 67B        0.11765
     64B -> 68B       -0.16027
     64B -> 69B        0.26924

 Excited State  36:  2.734-A      5.8736 eV  211.09 nm  f=0.0015  <S**2>=1.619
     62A -> 68A        0.12619
     63A -> 66A       -0.11659
     63A -> 68A       -0.22813
     64A -> 68A       -0.10031
     64A -> 69A       -0.12466
     60B -> 67B        0.13596
     63B -> 67B       -0.15903
     63B -> 68B       -0.22744
     64B -> 67B        0.28312
     64B -> 68B        0.77900
     64B -> 69B        0.17686

 The electronic state is 2-A.
 Alpha  occ. eigenvalues --  -19.17429 -19.12513 -10.28011 -10.26298 -10.20661
 Alpha  occ. eigenvalues --  -10.20039 -10.20024 -10.19789 -10.19636 -10.19602
 Alpha  occ. eigenvalues --  -10.19479 -10.19336 -10.19268 -10.19153 -10.19122
 Alpha  occ. eigenvalues --  -10.18837 -10.18380 -10.17633  -1.06474  -1.00848
 Alpha  occ. eigenvalues --   -0.86504  -0.85429  -0.79085  -0.76191  -0.75356
 Alpha  occ. eigenvalues --   -0.74592  -0.73164  -0.71934  -0.65098  -0.62207
 Alpha  occ. eigenvalues --   -0.61073  -0.60128  -0.58003  -0.55124  -0.52467
 Alpha  occ. eigenvalues --   -0.52114  -0.50068  -0.47933  -0.46432  -0.45487
 Alpha  occ. eigenvalues --   -0.45218  -0.44886  -0.44061  -0.43356  -0.42667
 Alpha  occ. eigenvalues --   -0.42046  -0.40854  -0.40678  -0.38746  -0.38617
 Alpha  occ. eigenvalues --   -0.38126  -0.37337  -0.36785  -0.36113  -0.34962
 Alpha  occ. eigenvalues --   -0.34715  -0.34147  -0.33517  -0.31334  -0.27981
 Alpha  occ. eigenvalues --   -0.26306  -0.25556  -0.25012  -0.24520  -0.20339
 Alpha virt. eigenvalues --   -0.02956  -0.01338  -0.00251   0.00074   0.07436
 Alpha virt. eigenvalues --    0.08724   0.09800   0.11675   0.12533   0.13432
 Alpha virt. eigenvalues --    0.13732   0.14469   0.14666   0.15357   0.16240

  Beta  occ. eigenvalues --  -19.17239 -19.11652 -10.27355 -10.26282 -10.20750
  Beta  occ. eigenvalues --  -10.19913 -10.19881 -10.19699 -10.19690 -10.19632
  Beta  occ. eigenvalues --  -10.19482 -10.19305 -10.19244 -10.19163 -10.19134
  Beta  occ. eigenvalues --  -10.18811 -10.18371 -10.17583  -1.05857  -0.99316
  Beta  occ. eigenvalues --   -0.86319  -0.85353  -0.78561  -0.75948  -0.75226
  Beta  occ. eigenvalues --   -0.74550  -0.72888  -0.71669  -0.64590  -0.61989
  Beta  occ. eigenvalues --   -0.60976  -0.60086  -0.57731  -0.54668  -0.52306
  Beta  occ. eigenvalues --   -0.51177  -0.49622  -0.47265  -0.46178  -0.45361
  Beta  occ. eigenvalues --   -0.45064  -0.44680  -0.43986  -0.43144  -0.42595
  Beta  occ. eigenvalues --   -0.42018  -0.40537  -0.40176  -0.38645  -0.38141
  Beta  occ. eigenvalues --   -0.37948  -0.36879  -0.36619  -0.35716  -0.34823
  Beta  occ. eigenvalues --   -0.34585  -0.33848  -0.32257  -0.29940  -0.26790
  Beta  occ. eigenvalues --   -0.25919  -0.24883  -0.24532  -0.23887
  Beta virt. eigenvalues --   -0.12278  -0.02026  -0.01096   0.00272   0.00555
  Beta virt. eigenvalues --    0.08815   0.09230   0.09837   0.11859   0.12590
  Beta virt. eigenvalues --    0.13514   0.13864   0.14687   0.14926   0.15515

 Mulliken charges and spin densities:
               1          2
     1  C    0.280540   0.019756
     2  C    0.210694   0.378887
     3  O   -0.572121   0.339160
     4  C   -0.338597   0.021953
     5  H    0.125242   0.006339
     6  H    0.118139  -0.002719
     7  H    0.118463  -0.000677
     8  C   -0.328813  -0.001722
     9  H    0.131107   0.000304
    10  H    0.128762   0.001503
    11  H    0.130903   0.016358
    12  C    0.091771  -0.012940
    13  C   -0.120949   0.024999
    14  C   -0.126735   0.022927
    15  C   -0.102125  -0.011590
    16  H    0.103187  -0.001554
    17  C   -0.109799  -0.012806
    18  H    0.103210  -0.000797
    19  C   -0.095755   0.026585
    20  H    0.102112   0.000477
    21  H    0.103316   0.000489
    22  H    0.103447  -0.001152
    23  C    0.102145  -0.082299
    24  C   -0.109206   0.105463
    25  C   -0.113175   0.102076
    26  C   -0.101953  -0.055824
    27  H    0.117094  -0.004464
    28  C   -0.108372  -0.055985
    29  H    0.110210  -0.004260
    30  C   -0.089153   0.113721
    31  H    0.109159   0.002056
    32  H    0.110047   0.001981
    33  H    0.110500  -0.005017
    34  O   -0.531502   0.062989
    35  H    0.338207   0.005784
 Sum of Mulliken charges =  -0.00000   1.00000

 Dipole moment (field-independent basis, Debye):
    X=             -1.3829    Y=              3.8453    Z=             -0.6200  Tot=              4.1332
 Quadrupole moment (field-independent basis, Debye-Ang):
   XX=           -100.2830   YY=           -102.9740   ZZ=           -102.9024
   XY=              1.3140   XZ=             -7.2410   YZ=              1.2090

 Normal termination of Gaussian 16 at Sat May 25 00:54:22 2019.
