 Gaussian 16, Revision B.01,
 Gaussian 16:  ES64L-G16RevB.01 20-Dec-2017

 ----------------------------------------------------------------------
 #p td=(50-50,nstates=36) ub3lyp/6-31g(d,p) scrf=(iefpcm,solvent=aceton
 itrile) guess=(mix,always) empiricaldispersion=gd3
 ----------------------------------------------------------------------

 -------------------
 Title Card Required
 -------------------
 Symbolic Z-matrix:
 Charge =  0 Multiplicity = 2

                         Standard orientation:
 ---------------------------------------------------------------------
 Center     Atomic      Atomic             Coordinates (Angstroms)
 Number     Number       Type             X           Y           Z
 ---------------------------------------------------------------------
      1          6           0       -1.009558   -1.429484   -0.923388
      2          6           0        0.757856   -1.266886    0.976562
      3          8           0       -1.408175   -2.496782   -0.427185
      4          6           0       -0.008114   -1.466101   -2.059590
      5          1           0       -0.555889   -1.342397   -3.001524
      6          1           0        0.742117   -0.677057   -2.004582
      7          1           0        0.489721   -2.435399   -2.061979
      8          6           0       -0.239528   -1.206546    2.092455
      9          1           0       -0.687155   -0.220009    2.205364
     10          1           0       -1.046290   -1.921581    1.908039
     11          1           0        0.244579   -1.479945    3.039877
     12          6           0       -1.672910   -0.139287   -0.580358
     13          6           0       -2.815617   -0.167530    0.239243
     14          6           0       -1.198870    1.100769   -1.041249
     15          6           0       -3.462170    1.011392    0.596320
     16          1           0       -3.178998   -1.128989    0.584365
     17          6           0       -1.845849    2.281877   -0.680434
     18          1           0       -0.314804    1.152883   -1.665190
     19          6           0       -2.976454    2.241580    0.139040
     20          1           0       -4.344136    0.975696    1.228733
     21          1           0       -1.463245    3.234153   -1.034588
     22          1           0       -3.477986    3.163012    0.419441
     23          6           0        1.618542   -0.190435    0.594753
     24          6           0        2.714328   -0.414996   -0.284844
     25          6           0        1.391833    1.141976    1.034233
     26          6           0        3.524246    0.633708   -0.699696
     27          1           0        2.906057   -1.423379   -0.631646
     28          6           0        2.208518    2.182263    0.609860
     29          1           0        0.565210    1.359641    1.699858
     30          6           0        3.280214    1.941529   -0.259231
     31          1           0        4.354328    0.434349   -1.371558
     32          1           0        2.008252    3.191835    0.956976
     33          1           0        3.914556    2.758934   -0.587636
     34          8           0        1.146735   -2.517905    0.593873
     35          1           0        0.336390   -3.047233    0.460484
 ---------------------------------------------------------------------

 SCF Done:  E(UB3LYP) =  -770.425610148     A.U. after   19 cycles

 Excitation energies and oscillator strengths:

 Excited State   1:  2.044-A      2.2747 eV  545.07 nm  f=0.1424  <S**2>=0.795
     65A -> 66A        0.99261
 This state for optimization and/or second-order correction.
 Total Energy, E(TD-HF/TD-DFT) =  -770.342018120
 Copying the excited state density for this state as the 1-particle RhoCI density.

 Excited State   2:  2.592-A      3.0562 eV  405.68 nm  f=0.0007  <S**2>=1.430
     63A -> 66A       -0.21463
     62B -> 65B        0.80684
     62B -> 66B       -0.26602
     62B -> 69B        0.11588
     63B -> 65B       -0.32592
     64B -> 65B        0.25659

 Excited State   3:  2.124-A      3.1387 eV  395.02 nm  f=0.0009  <S**2>=0.878
     65A -> 67A        0.59955
     65A -> 68A        0.53729
     61B -> 65B        0.16048
     62B -> 65B       -0.22286
     64B -> 65B        0.46858
     64B -> 66B        0.12104

 Excited State   4:  2.536-A      3.2247 eV  384.48 nm  f=0.0240  <S**2>=1.358
     60A -> 66A       -0.16266
     62A -> 66A       -0.22027
     64A -> 67A       -0.10265
     65A -> 67A       -0.17353
     65A -> 69A       -0.27487
     65A -> 70A        0.16648
     60B -> 66B       -0.18256
     61B -> 66B       -0.13331
     62B -> 65B        0.22770
     63B -> 65B        0.70752
     64B -> 65B        0.29746
     64B -> 67B       -0.10459

 Excited State   5:  2.747-A      3.3146 eV  374.05 nm  f=0.0006  <S**2>=1.637
     61A -> 67A       -0.12677
     62A -> 66A       -0.36249
     64A -> 66A       -0.10836
     64A -> 68A        0.11490
     65A -> 68A       -0.17623
     65A -> 69A        0.41744
     60B -> 65B        0.43953
     61B -> 65B        0.45802
     61B -> 67B        0.14089
     63B -> 66B       -0.27952
     64B -> 66B       -0.11692
     64B -> 68B        0.11466

 Excited State   6:  2.186-A      3.4717 eV  357.13 nm  f=0.0038  <S**2>=0.945
     61A -> 66A        0.10737
     65A -> 67A        0.67202
     65A -> 68A       -0.19823
     65A -> 69A       -0.16497
     60B -> 65B       -0.16795
     61B -> 66B       -0.10971
     62B -> 65B        0.21415
     63B -> 65B        0.21826
     64B -> 65B       -0.54827

 Excited State   7:  2.118-A      3.6652 eV  338.28 nm  f=0.0076  <S**2>=0.871
     65A -> 67A       -0.29399
     65A -> 68A        0.76830
     61B -> 65B        0.11986
     62B -> 65B        0.13935
     63B -> 65B        0.10966
     64B -> 65B       -0.49641

 Excited State   8:  2.580-A      3.7719 eV  328.71 nm  f=0.0017  <S**2>=1.414
     61A -> 66A        0.13812
     64A -> 66A        0.34266
     65A -> 67A       -0.22179
     65A -> 68A       -0.12838
     65A -> 69A       -0.11480
     60B -> 65B       -0.43818
     61B -> 65B        0.69019
     61B -> 66B       -0.11238
     63B -> 65B       -0.11237
     64B -> 66B        0.20628

 Excited State   9:  2.735-A      3.8830 eV  319.30 nm  f=0.0001  <S**2>=1.621
     62A -> 66A        0.18267
     63A -> 66A        0.86335
     63A -> 70A        0.15106
     64A -> 66A        0.32141
     62B -> 65B        0.25692

 Excited State  10:  2.622-A      4.1376 eV  299.65 nm  f=0.0569  <S**2>=1.469
     61A -> 67A        0.17350
     61A -> 68A       -0.13198
     62A -> 66A        0.27061
     62A -> 67A       -0.11717
     63A -> 66A       -0.14361
     64A -> 66A        0.17608
     64A -> 67A        0.23003
     65A -> 69A        0.50112
     60B -> 65B        0.15447
     60B -> 66B        0.14880
     60B -> 67B        0.13526
     61B -> 65B        0.11755
     61B -> 66B        0.10318
     61B -> 67B       -0.23213
     63B -> 65B        0.47729
     63B -> 66B        0.10150
     64B -> 65B        0.11522
     64B -> 67B        0.16834

 Excited State  11:  2.977-A      4.3099 eV  287.67 nm  f=0.0409  <S**2>=1.965
     61A -> 66A        0.19542
     61A -> 68A        0.27910
     62A -> 67A        0.13168
     63A -> 66A       -0.13245
     64A -> 66A        0.24412
     64A -> 67A       -0.32562
     64A -> 68A       -0.13715
     65A -> 69A        0.48738
     60B -> 65B       -0.16327
     60B -> 68B        0.11521
     61B -> 65B       -0.22159
     61B -> 66B       -0.12152
     61B -> 67B        0.13626
     61B -> 68B       -0.19234
     63B -> 67B        0.10047
     64B -> 67B       -0.29278
     64B -> 68B       -0.29597

 Excited State  12:  3.023-A      4.3363 eV  285.92 nm  f=0.0295  <S**2>=2.035
     61A -> 67A        0.28217
     61A -> 68A        0.18848
     62A -> 66A        0.11505
     62A -> 68A        0.10847
     64A -> 66A       -0.25744
     64A -> 67A       -0.11400
     64A -> 68A       -0.33574
     65A -> 69A       -0.20151
     60B -> 65B        0.39261
     61B -> 65B        0.31392
     61B -> 67B       -0.20380
     62B -> 68B        0.10739
     63B -> 65B       -0.11268
     63B -> 66B        0.22314
     63B -> 68B        0.13225
     64B -> 67B       -0.11412
     64B -> 68B       -0.35634

 Excited State  13:  2.777-A      4.4213 eV  280.43 nm  f=0.0513  <S**2>=1.678
     61A -> 66A        0.28680
     62A -> 66A       -0.39984
     63A -> 66A       -0.12838
     64A -> 66A        0.47244
     65A -> 69A       -0.24367
     60B -> 65B        0.45134
     60B -> 67B        0.13439
     61B -> 65B       -0.22596
     61B -> 66B       -0.19072
     63B -> 67B        0.10648
     64B -> 66B        0.21702
     64B -> 67B        0.12094

 Excited State  14:  3.146-A      4.5883 eV  270.22 nm  f=0.0413  <S**2>=2.224
     61A -> 67A       -0.24644
     62A -> 66A        0.39452
     62A -> 67A        0.11321
     63A -> 66A       -0.15212
     64A -> 66A        0.21521
     64A -> 67A       -0.18364
     64A -> 68A        0.19545
     65A -> 69A       -0.14182
     60B -> 65B        0.34471
     60B -> 67B       -0.16540
     61B -> 65B        0.13998
     61B -> 66B        0.17435
     61B -> 67B        0.34763
     63B -> 65B        0.11260
     63B -> 66B        0.32855
     64B -> 66B        0.16398
     64B -> 67B       -0.17878
     64B -> 68B        0.17728

 Excited State  15:  2.271-A      4.7015 eV  263.71 nm  f=0.0162  <S**2>=1.039
     65A -> 70A        0.84102
     59B -> 65B       -0.22554
     60B -> 66B       -0.20309
     61B -> 66B       -0.18587
     62B -> 65B       -0.10428
     62B -> 66B       -0.15323
     63B -> 65B       -0.13760
     63B -> 66B        0.15809

 Excited State  16:  2.463-A      4.7104 eV  263.21 nm  f=0.0021  <S**2>=1.267
     63A -> 66A       -0.11637
     65A -> 70A        0.18486
     62B -> 65B        0.25721
     62B -> 66B        0.79782
     62B -> 70B       -0.10655
     63B -> 66B       -0.28072
     64B -> 66B        0.32848

 Excited State  17:  3.367-A      4.7677 eV  260.05 nm  f=0.0004  <S**2>=2.585
     61A -> 66A        0.70343
     62A -> 66A        0.15628
     64A -> 66A       -0.30273
     64A -> 69A       -0.10431
     60B -> 66B        0.11461
     61B -> 66B       -0.19648
     62B -> 66B        0.28541
     63B -> 66B        0.19986
     64B -> 65B        0.15653
     64B -> 66B       -0.28833

 Excited State  18:  2.194-A      4.9059 eV  252.73 nm  f=0.0267  <S**2>=0.953
     61A -> 66A        0.17753
     62A -> 66A        0.11532
     62A -> 67A        0.12603
     62A -> 68A       -0.12042
     63A -> 66A        0.14677
     64A -> 66A       -0.39851
     61B -> 65B       -0.10302
     61B -> 66B       -0.18503
     62B -> 66B       -0.28537
     64B -> 66B        0.74492

 Excited State  19:  2.098-A      4.9408 eV  250.94 nm  f=0.0135  <S**2>=0.851
     65A -> 70A        0.20379
     59B -> 65B        0.92172
     59B -> 66B        0.14407
     63B -> 66B        0.14773

 Excited State  20:  3.229-A      5.0463 eV  245.69 nm  f=0.0199  <S**2>=2.357
     60A -> 66A        0.62180
     60A -> 69A        0.10241
     61A -> 68A        0.10202
     62A -> 67A        0.11918
     64A -> 66A       -0.12896
     64A -> 68A       -0.10040
     65A -> 70A        0.34036
     60B -> 66B        0.39914
     61B -> 66B        0.16723
     63B -> 66B       -0.28707
     63B -> 67B        0.15431
     63B -> 69B        0.11604

 Excited State  21:  2.672-A      5.1189 eV  242.21 nm  f=0.0226  <S**2>=1.535
     60A -> 67A       -0.10682
     60A -> 68A        0.13307
     61A -> 66A        0.43929
     62A -> 67A       -0.43890
     62A -> 68A        0.19765
     63A -> 67A        0.16720
     64A -> 67A       -0.20050
     60B -> 66B       -0.18670
     60B -> 67B       -0.12526
     61B -> 66B        0.51448
     61B -> 67B       -0.11991
     62B -> 66B       -0.11965
     63B -> 66B       -0.14530
     63B -> 67B       -0.16515
     64B -> 66B        0.11303

 Excited State  22:  3.076-A      5.1723 eV  239.71 nm  f=0.0054  <S**2>=2.116
     60A -> 66A       -0.17808
     60A -> 67A        0.10321
     61A -> 66A        0.13872
     62A -> 67A        0.25400
     62A -> 68A       -0.14163
     63A -> 67A       -0.10326
     64A -> 67A        0.11527
     57B -> 65B       -0.13040
     58B -> 65B       -0.13593
     60B -> 66B       -0.28529
     60B -> 67B        0.24662
     60B -> 68B       -0.11492
     61B -> 66B        0.48334
     61B -> 67B        0.21629
     63B -> 66B       -0.12233
     63B -> 67B        0.43915
     64B -> 67B        0.22725

 Excited State  23:  2.528-A      5.2244 eV  237.32 nm  f=0.1292  <S**2>=1.347
     56A -> 66A        0.16462
     57A -> 66A        0.14377
     61A -> 67A       -0.10688
     62A -> 66A       -0.36290
     62A -> 67A        0.11469
     62A -> 70A       -0.14488
     63A -> 66A        0.10797
     64A -> 66A       -0.10693
     65A -> 69A        0.18893
     57B -> 65B        0.30060
     57B -> 66B       -0.10626
     58B -> 65B        0.27289
     59B -> 65B       -0.10734
     60B -> 65B       -0.12089
     61B -> 66B        0.24216
     62B -> 66B        0.12089
     63B -> 66B        0.49908
     63B -> 67B        0.14419

 Excited State  24:  2.701-A      5.2768 eV  234.96 nm  f=0.0951  <S**2>=1.574
     56A -> 66A       -0.21764
     57A -> 66A       -0.20753
     60A -> 66A        0.31398
     62A -> 66A       -0.35208
     62A -> 67A       -0.10551
     63A -> 66A        0.10053
     65A -> 69A        0.13434
     55B -> 65B        0.10835
     57B -> 65B       -0.34432
     57B -> 66B        0.13291
     58B -> 65B       -0.32583
     58B -> 66B        0.11760
     61B -> 66B        0.12181
     61B -> 67B       -0.10381
     63B -> 66B        0.35869
     64B -> 66B        0.11405

 Excited State  25:  3.362-A      5.4866 eV  225.98 nm  f=0.0102  <S**2>=2.576
     60A -> 67A       -0.27370
     60A -> 68A       -0.28932
     61A -> 67A        0.16033
     61A -> 68A        0.15539
     61A -> 69A        0.11840
     62A -> 68A        0.24505
     64A -> 68A        0.16068
     64A -> 69A       -0.13011
     60B -> 66B       -0.14969
     60B -> 67B       -0.23842
     60B -> 68B       -0.28668
     61B -> 67B       -0.12285
     61B -> 68B       -0.16297
     62B -> 67B        0.10494
     62B -> 68B        0.15741
     63B -> 67B        0.25662
     63B -> 68B        0.48111
     64B -> 68B        0.20021

 Excited State  26:  2.182-A      5.5120 eV  224.93 nm  f=0.0528  <S**2>=0.940
     60A -> 66A       -0.59055
     61A -> 68A        0.10060
     62A -> 66A       -0.15247
     62A -> 67A        0.13200
     65A -> 70A        0.14642
     60B -> 66B        0.63880
     61B -> 66B        0.21462
     61B -> 67B       -0.10454

 Excited State  27:  2.110-A      5.7593 eV  215.28 nm  f=0.0007  <S**2>=0.863
     57B -> 65B       -0.56777
     58B -> 65B        0.76259
     58B -> 66B        0.19159

 Excited State  28:  3.379-A      5.7880 eV  214.21 nm  f=0.0003  <S**2>=2.604
     63A -> 67A        0.41475
     63A -> 68A       -0.14393
     64A -> 67A        0.15303
     61B -> 67B        0.12491
     62B -> 67B        0.76383
     62B -> 68B       -0.15209
     63B -> 67B       -0.26538
     64B -> 67B        0.22428

 Excited State  29:  2.171-A      5.8172 eV  213.13 nm  f=0.0045  <S**2>=0.928
     62A -> 67A        0.15159
     63A -> 67A        0.73063
     63A -> 68A       -0.24899
     64A -> 67A        0.34303
     64A -> 68A       -0.10964
     65A -> 71A        0.10584
     62B -> 67B       -0.41077
     63B -> 67B        0.13721
     64B -> 67B       -0.17265

 Excited State  30:  2.042-A      5.8466 eV  212.06 nm  f=0.0007  <S**2>=0.792
     65A -> 71A        0.94011
     65A -> 72A        0.24044
     65A -> 73A        0.14310

 Excited State  31:  2.644-A      5.9736 eV  207.55 nm  f=0.0461  <S**2>=1.498
     56A -> 66A       -0.10557
     60A -> 69A        0.27959
     61A -> 69A       -0.10311
     62A -> 67A       -0.17959
     62A -> 70A        0.13264
     63A -> 67A        0.16156
     64A -> 67A       -0.24779
     64A -> 69A       -0.26084
     53B -> 65B       -0.25451
     55B -> 65B        0.30399
     56B -> 65B       -0.10011
     57B -> 65B        0.30119
     57B -> 66B        0.11127
     60B -> 66B       -0.12411
     60B -> 69B       -0.18076
     61B -> 66B       -0.11572
     63B -> 67B        0.11811
     63B -> 69B        0.15268
     63B -> 70B       -0.17024
     64B -> 67B        0.32847

 Excited State  32:  2.611-A      5.9924 eV  206.90 nm  f=0.0546  <S**2>=1.454
     60A -> 69A       -0.21023
     61A -> 66A       -0.10531
     61A -> 68A       -0.11473
     61A -> 69A        0.22061
     61A -> 70A       -0.11185
     62A -> 67A       -0.10786
     62A -> 69A        0.23083
     63A -> 67A        0.19781
     64A -> 67A       -0.30722
     64A -> 69A       -0.11805
     53B -> 65B        0.16506
     55B -> 65B       -0.13629
     56B -> 65B        0.23669
     60B -> 66B        0.15894
     60B -> 67B       -0.10064
     61B -> 67B        0.13758
     61B -> 69B        0.11759
     62B -> 67B       -0.19124
     63B -> 69B       -0.15303
     63B -> 70B        0.13702
     64B -> 67B        0.53185

 Excited State  33:  2.445-A      6.0187 eV  206.00 nm  f=0.0044  <S**2>=1.244
     64A -> 67A        0.11520
     64A -> 69A        0.14442
     55B -> 65B        0.13671
     56B -> 65B        0.81988
     56B -> 66B       -0.22839
     57B -> 65B        0.32023
     58B -> 65B        0.13822
     63B -> 67B       -0.10340

 Excited State  34:  2.731-A      6.0305 eV  205.60 nm  f=0.0014  <S**2>=1.615
     60A -> 67A        0.13425
     61A -> 68A       -0.19234
     61A -> 69A        0.13566
     61A -> 70A       -0.10452
     62A -> 67A       -0.26212
     62A -> 68A       -0.16500
     64A -> 69A       -0.38084
     55B -> 65B       -0.10156
     56B -> 65B        0.23677
     61B -> 67B       -0.19417
     62B -> 67B        0.32280
     63B -> 67B        0.40368
     64B -> 67B       -0.39199
     64B -> 68B        0.18401

 Excited State  35:  2.687-A      6.1190 eV  202.62 nm  f=0.0011  <S**2>=1.555
     60A -> 69A       -0.14498
     60A -> 70A        0.11183
     61A -> 69A        0.10404
     62A -> 69A        0.24556
     63A -> 69A       -0.10135
     64A -> 69A        0.19366
     53B -> 65B        0.11135
     54B -> 65B        0.23053
     55B -> 65B        0.53043
     56B -> 65B       -0.24467
     57B -> 65B        0.20268
     58B -> 65B        0.20675
     60B -> 66B        0.16212
     60B -> 70B       -0.13157
     61B -> 67B       -0.13819
     63B -> 67B        0.14223
     63B -> 69B       -0.26508
     64B -> 68B        0.18917
     64B -> 69B       -0.18697

 Excited State  36:  2.800-A      6.1483 eV  201.66 nm  f=0.0500  <S**2>=1.710
     61A -> 67A        0.14380
     61A -> 69A       -0.35427
     62A -> 67A       -0.14797
     62A -> 68A        0.16898
     63A -> 67A        0.11266
     64A -> 67A       -0.13968
     64A -> 68A        0.24242
     64A -> 69A        0.33475
     64A -> 70A       -0.14645
     55B -> 65B       -0.16285
     60B -> 66B        0.11154
     60B -> 68B        0.14632
     61B -> 66B       -0.15980
     62B -> 67B        0.12952
     63B -> 67B        0.46252
     63B -> 68B       -0.17535
     64B -> 67B        0.11615
     64B -> 69B       -0.26604

 The electronic state is 2-A.
 Alpha  occ. eigenvalues --  -19.17625 -19.13440 -10.27675 -10.25645 -10.19951
 Alpha  occ. eigenvalues --  -10.19878 -10.19864 -10.19842 -10.19524 -10.19502
 Alpha  occ. eigenvalues --  -10.19464 -10.19230 -10.19065 -10.18976 -10.18938
 Alpha  occ. eigenvalues --  -10.18918 -10.18302 -10.18031  -1.06141  -1.02894
 Alpha  occ. eigenvalues --   -0.86012  -0.85514  -0.78313  -0.76994  -0.75071
 Alpha  occ. eigenvalues --   -0.74661  -0.72872  -0.72415  -0.64923  -0.62840
 Alpha  occ. eigenvalues --   -0.60675  -0.60199  -0.57494  -0.55092  -0.52121
 Alpha  occ. eigenvalues --   -0.51001  -0.50195  -0.47059  -0.46381  -0.46039
 Alpha  occ. eigenvalues --   -0.45791  -0.44440  -0.44350  -0.42917  -0.42612
 Alpha  occ. eigenvalues --   -0.42178  -0.41729  -0.41134  -0.38971  -0.38716
 Alpha  occ. eigenvalues --   -0.38264  -0.37403  -0.36969  -0.35795  -0.35479
 Alpha  occ. eigenvalues --   -0.34505  -0.34253  -0.34020  -0.32080  -0.27523
 Alpha  occ. eigenvalues --   -0.26118  -0.25625  -0.25406  -0.25029  -0.16295
 Alpha virt. eigenvalues --   -0.05433  -0.00961  -0.00056   0.01715   0.04129
 Alpha virt. eigenvalues --    0.08668   0.09882   0.11647   0.12441   0.13464
 Alpha virt. eigenvalues --    0.13635   0.14807   0.15162   0.15355   0.16068

  Beta  occ. eigenvalues --  -19.17379 -19.13296 -10.27639 -10.24774 -10.20025
  Beta  occ. eigenvalues --  -10.19964 -10.19853 -10.19823 -10.19521 -10.19516
  Beta  occ. eigenvalues --  -10.19452 -10.19085 -10.19080 -10.18976 -10.18772
  Beta  occ. eigenvalues --  -10.18697 -10.18344 -10.18031  -1.05460  -1.02601
  Beta  occ. eigenvalues --   -0.85952  -0.85250  -0.77677  -0.76839  -0.75035
  Beta  occ. eigenvalues --   -0.74420  -0.72707  -0.72191  -0.64133  -0.62734
  Beta  occ. eigenvalues --   -0.60639  -0.60052  -0.57200  -0.55022  -0.51883
  Beta  occ. eigenvalues --   -0.50899  -0.49330  -0.46343  -0.46290  -0.45702
  Beta  occ. eigenvalues --   -0.45594  -0.44405  -0.44271  -0.42746  -0.42520
  Beta  occ. eigenvalues --   -0.42007  -0.41495  -0.40892  -0.38670  -0.38441
  Beta  occ. eigenvalues --   -0.37818  -0.37204  -0.36417  -0.35633  -0.35294
  Beta  occ. eigenvalues --   -0.34369  -0.33999  -0.33632  -0.31368  -0.26598
  Beta  occ. eigenvalues --   -0.25703  -0.25263  -0.25065  -0.24613
  Beta virt. eigenvalues --   -0.08692  -0.03883  -0.00789   0.00441   0.02988
  Beta virt. eigenvalues --    0.05532   0.08819   0.09951   0.11781   0.12497
  Beta virt. eigenvalues --    0.13521   0.13803   0.14914   0.15449   0.15612

 Mulliken charges and spin densities:
               1          2
     1  C    0.366789   0.037206
     2  C    0.228611   0.565870
     3  O   -0.561007   0.054737
     4  C   -0.375381  -0.002596
     5  H    0.141114   0.001664
     6  H    0.135804   0.001365
     7  H    0.125192   0.000558
     8  C   -0.360459  -0.040808
     9  H    0.131194   0.002563
    10  H    0.128799   0.012979
    11  H    0.132960   0.032766
    12  C    0.073209  -0.018413
    13  C   -0.114913   0.029918
    14  C   -0.115820   0.024568
    15  C   -0.101437  -0.014740
    16  H    0.109256  -0.001392
    17  C   -0.107546  -0.015052
    18  H    0.108409  -0.001020
    19  C   -0.090965   0.031860
    20  H    0.107007   0.000523
    21  H    0.107913   0.000537
    22  H    0.108879  -0.001435
    23  C    0.100802  -0.151814
    24  C   -0.133839   0.195210
    25  C   -0.130723   0.190284
    26  C   -0.100368  -0.103342
    27  H    0.106635  -0.008494
    28  C   -0.108576  -0.103250
    29  H    0.098709  -0.008262
    30  C   -0.104683   0.214080
    31  H    0.100509   0.003695
    32  H    0.100993   0.003665
    33  H    0.099693  -0.009831
    34  O   -0.547828   0.067540
    35  H    0.341068   0.008861
 Sum of Mulliken charges =  -0.00000   1.00000

 Dipole moment (field-independent basis, Debye):
    X=             -0.5041    Y=              3.3535    Z=             -0.0963  Tot=              3.3925
 Quadrupole moment (field-independent basis, Debye-Ang):
   XX=           -103.8454   YY=           -103.1130   ZZ=           -100.7032
   XY=             -2.7611   XZ=             -7.8650   YZ=             -0.2347

 Normal termination of Gaussian 16 at Sat May 25 04:47:39 2019.
