 Gaussian 16, Revision B.01,
 Gaussian 16:  ES64L-G16RevB.01 20-Dec-2017

 ----------------------------------------------------------------------
 #p td=(50-50,nstates=36) ub3lyp/6-31g(d,p) scrf=(iefpcm,solvent=aceton
 itrile) guess=(mix,always) empiricaldispersion=gd3
 ----------------------------------------------------------------------

 -------------------
 Title Card Required
 -------------------
 Symbolic Z-matrix:
 Charge =  0 Multiplicity = 2

                         Standard orientation:
 ---------------------------------------------------------------------
 Center     Atomic      Atomic             Coordinates (Angstroms)
 Number     Number       Type             X           Y           Z
 ---------------------------------------------------------------------
      1          6           0       -1.608270   -1.349123   -0.962268
      2          6           0        0.750216   -1.381453    1.200254
      3          8           0       -2.085995   -2.236219   -0.251104
      4          6           0       -0.793665   -1.704399   -2.184867
      5          1           0       -1.153771   -1.174157   -3.071487
      6          1           0        0.250977   -1.415102   -2.026222
      7          1           0       -0.843612   -2.781195   -2.347143
      8          6           0       -0.206880   -1.178180    2.327468
      9          1           0       -0.315182   -0.129376    2.602152
     10          1           0       -1.199496   -1.545770    2.035227
     11          1           0        0.102119   -1.741178    3.218672
     12          6           0       -1.781718    0.087298   -0.601303
     13          6           0       -2.681800    0.421866    0.424908
     14          6           0       -1.042048    1.106822   -1.222674
     15          6           0       -2.837652    1.745677    0.823579
     16          1           0       -3.248286   -0.373114    0.897216
     17          6           0       -1.191211    2.431445   -0.815020
     18          1           0       -0.328538    0.869925   -2.003642
     19          6           0       -2.089183    2.753522    0.205539
     20          1           0       -3.537798    1.995307    1.614915
     21          1           0       -0.602405    3.210427   -1.288943
     22          1           0       -2.205059    3.786303    0.520350
     23          6           0        1.642568   -0.428236    0.649129
     24          6           0        2.447953   -0.756883   -0.484284
     25          6           0        1.755889    0.896592    1.164740
     26          6           0        3.283480    0.185868   -1.066453
     27          1           0        2.395081   -1.760899   -0.888871
     28          6           0        2.597677    1.825627    0.571170
     29          1           0        1.171535    1.192521    2.028739
     30          6           0        3.368694    1.487093   -0.550848
     31          1           0        3.878445   -0.092851   -1.932119
     32          1           0        2.655046    2.829319    0.983467
     33          1           0        4.023167    2.220758   -1.010838
     34          8           0        0.761214   -2.630915    0.637135
     35          1           0       -0.128263   -3.015067    0.705863
 ---------------------------------------------------------------------

 SCF Done:  E(UB3LYP) =  -770.430594915     A.U. after   19 cycles

 Excitation energies and oscillator strengths:

 Excited State   1:  2.034-A      1.8071 eV  686.11 nm  f=0.0405  <S**2>=0.784
     65A -> 66A        0.99822
 This state for optimization and/or second-order correction.
 Total Energy, E(TD-HF/TD-DFT) =  -770.364186387
 Copying the excited state density for this state as the 1-particle RhoCI density.

 Excited State   2:  2.065-A      2.9577 eV  419.18 nm  f=0.0025  <S**2>=0.816
     65A -> 67A        0.11596
     65A -> 68A        0.93948
     64B -> 65B        0.23975
     64B -> 66B       -0.16973

 Excited State   3:  2.066-A      3.2016 eV  387.26 nm  f=0.0012  <S**2>=0.818
     65A -> 67A        0.94133
     65A -> 68A       -0.11056
     65A -> 69A        0.17761
     63B -> 65B       -0.16523
     63B -> 66B        0.12086

 Excited State   4:  3.365-A      3.2721 eV  378.91 nm  f=0.0008  <S**2>=2.580
     60A -> 66A       -0.16328
     61A -> 67A        0.12498
     62A -> 66A        0.10071
     63A -> 66A        0.53804
     64A -> 66A       -0.19318
     60B -> 65B       -0.18702
     60B -> 66B       -0.17721
     61B -> 67B       -0.13872
     62B -> 65B       -0.46222
     62B -> 66B       -0.30841
     63B -> 65B        0.31913
     63B -> 66B        0.11322
     64B -> 65B       -0.11268

 Excited State   5:  2.722-A      3.3805 eV  366.76 nm  f=0.0010  <S**2>=1.603
     60A -> 66A        0.11296
     61A -> 66A        0.23819
     62A -> 66A        0.26243
     65A -> 67A       -0.22775
     65A -> 69A        0.46737
     65A -> 70A       -0.15199
     60B -> 66B        0.20622
     61B -> 65B       -0.27607
     61B -> 66B       -0.15023
     62B -> 65B       -0.28892
     62B -> 66B       -0.11426
     63B -> 65B       -0.45085
     63B -> 66B        0.20754

 Excited State   6:  2.986-A      3.4026 eV  364.38 nm  f=0.0013  <S**2>=1.979
     60A -> 66A       -0.11321
     61A -> 66A       -0.31550
     61A -> 67A        0.10595
     62A -> 66A       -0.33631
     63A -> 70A       -0.10090
     65A -> 67A       -0.20188
     65A -> 69A        0.40935
     60B -> 65B       -0.38627
     60B -> 66B       -0.12377
     61B -> 65B        0.28433
     61B -> 66B        0.19604
     61B -> 67B       -0.11414
     62B -> 65B        0.13511
     62B -> 66B        0.14408
     63B -> 65B       -0.19411
     63B -> 66B        0.29817

 Excited State   7:  2.146-A      3.8147 eV  325.02 nm  f=0.0038  <S**2>=0.901
     61A -> 66A        0.37358
     62A -> 66A        0.36768
     63A -> 66A        0.46160
     64A -> 66A       -0.15708
     60B -> 65B       -0.10487
     61B -> 65B        0.18988
     62B -> 65B        0.45069
     62B -> 66B        0.22874
     64B -> 65B        0.36829

 Excited State   8:  2.717-A      3.8362 eV  323.20 nm  f=0.0059  <S**2>=1.596
     61A -> 66A        0.14445
     62A -> 66A       -0.36507
     64A -> 66A        0.22932
     65A -> 68A       -0.18322
     60B -> 65B       -0.12601
     61B -> 65B       -0.38689
     61B -> 66B       -0.23249
     63B -> 65B        0.23362
     64B -> 65B        0.63993
     64B -> 66B       -0.10192

 Excited State   9:  2.808-A      3.9150 eV  316.69 nm  f=0.0085  <S**2>=1.721
     61A -> 66A       -0.29840
     62A -> 66A        0.14750
     63A -> 66A       -0.19311
     64A -> 66A       -0.30007
     65A -> 68A       -0.19505
     60B -> 65B        0.21637
     61B -> 65B        0.37942
     61B -> 66B        0.14072
     62B -> 65B       -0.31406
     63B -> 66B       -0.12502
     64B -> 65B        0.48850
     64B -> 66B       -0.30530

 Excited State  10:  2.440-A      4.2975 eV  288.51 nm  f=0.0657  <S**2>=1.238
     61A -> 67A       -0.11554
     62A -> 66A        0.16424
     63A -> 66A       -0.18557
     64A -> 66A       -0.10599
     64A -> 68A        0.21402
     65A -> 69A        0.58561
     65A -> 70A        0.38856
     61B -> 67B        0.10369
     63B -> 65B        0.42774
     64B -> 68B        0.31510

 Excited State  11:  3.041-A      4.3721 eV  283.58 nm  f=0.0064  <S**2>=2.061
     61A -> 67A       -0.10135
     61A -> 68A        0.15499
     62A -> 68A       -0.16580
     63A -> 68A       -0.10215
     64A -> 67A       -0.12053
     64A -> 68A       -0.43235
     65A -> 70A        0.56054
     61B -> 67B        0.12038
     63B -> 65B        0.13386
     63B -> 66B        0.11971
     64B -> 68B       -0.52873

 Excited State  12:  2.743-A      4.3820 eV  282.94 nm  f=0.0128  <S**2>=1.631
     61A -> 66A        0.15116
     61A -> 67A        0.23368
     62A -> 67A       -0.16768
     64A -> 66A        0.11659
     64A -> 67A        0.19296
     64A -> 68A        0.12300
     65A -> 70A        0.64116
     60B -> 66B       -0.10194
     60B -> 67B       -0.15868
     61B -> 67B       -0.23131
     62B -> 67B        0.13702
     63B -> 65B       -0.43605
     63B -> 66B       -0.16262
     63B -> 67B        0.10268
     64B -> 68B        0.11693

 Excited State  13:  3.050-A      4.4513 eV  278.53 nm  f=0.0197  <S**2>=2.075
     60A -> 67A       -0.11085
     61A -> 67A        0.29425
     62A -> 66A        0.24068
     62A -> 67A       -0.24002
     63A -> 66A       -0.24149
     64A -> 67A        0.21950
     64A -> 68A       -0.19850
     65A -> 69A        0.17363
     65A -> 70A       -0.17037
     60B -> 65B        0.30488
     60B -> 66B        0.11337
     60B -> 67B       -0.13847
     61B -> 67B       -0.34928
     62B -> 65B        0.15961
     62B -> 67B        0.23116
     63B -> 65B        0.35413
     63B -> 66B        0.14984
     64B -> 67B        0.13300
     64B -> 68B       -0.16753

 Excited State  14:  2.483-A      4.5285 eV  273.79 nm  f=0.0397  <S**2>=1.291
     61A -> 66A        0.27418
     63A -> 66A        0.10233
     64A -> 66A        0.56477
     65A -> 69A        0.12588
     60B -> 65B        0.21484
     60B -> 67B       -0.10277
     61B -> 65B        0.53407
     62B -> 65B       -0.34446
     62B -> 66B        0.10997
     63B -> 65B        0.15358
     64B -> 66B        0.19661

 Excited State  15:  2.886-A      4.5327 eV  273.53 nm  f=0.0036  <S**2>=1.832
     61A -> 66A       -0.26292
     62A -> 66A        0.20260
     60B -> 65B       -0.14764
     64B -> 65B        0.31766
     64B -> 66B        0.83320

 Excited State  16:  2.536-A      4.6585 eV  266.14 nm  f=0.0155  <S**2>=1.358
     61A -> 66A       -0.20688
     63A -> 66A        0.19061
     64A -> 66A        0.14323
     64A -> 68A        0.10720
     65A -> 70A        0.10316
     60B -> 65B        0.46706
     62B -> 65B        0.35345
     62B -> 66B       -0.48194
     63B -> 66B        0.48987
     64B -> 65B        0.10004
     64B -> 68B        0.11468

 Excited State  17:  2.532-A      4.6750 eV  265.21 nm  f=0.0009  <S**2>=1.352
     61A -> 66A       -0.36891
     62A -> 66A        0.43679
     64A -> 66A        0.61797
     60B -> 65B       -0.24523
     61B -> 65B       -0.12391
     62B -> 65B        0.12258
     62B -> 66B       -0.16153
     63B -> 66B       -0.26561
     64B -> 66B       -0.27544

 Excited State  18:  2.304-A      4.7445 eV  261.32 nm  f=0.0201  <S**2>=1.078
     61A -> 66A       -0.21574
     63A -> 66A        0.19210
     64A -> 66A        0.11319
     60B -> 65B        0.29760
     60B -> 66B       -0.11735
     61B -> 65B       -0.35970
     61B -> 66B        0.41413
     62B -> 65B       -0.22009
     62B -> 66B        0.58787
     63B -> 66B        0.22419

 Excited State  19:  2.476-A      4.8675 eV  254.72 nm  f=0.1915  <S**2>=1.282
     60A -> 66A        0.33410
     62A -> 66A        0.15048
     64A -> 68A        0.18388
     65A -> 69A       -0.31245
     65A -> 70A        0.12337
     60B -> 65B       -0.32151
     60B -> 66B        0.29201
     61B -> 65B        0.16791
     61B -> 66B       -0.38860
     62B -> 66B        0.20950
     63B -> 66B        0.46712

 Excited State  20:  2.636-A      4.9351 eV  251.23 nm  f=0.0045  <S**2>=1.487
     60A -> 66A        0.47242
     61A -> 66A        0.14245
     61A -> 67A        0.14671
     62A -> 66A       -0.26837
     63A -> 66A        0.17906
     63A -> 67A       -0.13763
     60B -> 65B       -0.13362
     60B -> 66B        0.48847
     61B -> 65B       -0.10871
     61B -> 66B        0.47460
     62B -> 66B       -0.21551
     63B -> 65B        0.12238
     63B -> 66B       -0.10201

 Excited State  21:  2.235-A      5.0122 eV  247.37 nm  f=0.1569  <S**2>=0.999
     60A -> 66A        0.50087
     61A -> 66A       -0.27319
     62A -> 66A       -0.20992
     63A -> 66A        0.35713
     65A -> 69A        0.23244
     60B -> 65B        0.19154
     60B -> 66B       -0.10764
     61B -> 66B       -0.45231
     62B -> 66B        0.16377
     63B -> 66B       -0.33672

 Excited State  22:  3.402-A      5.1535 eV  240.58 nm  f=0.0095  <S**2>=2.643
     60A -> 66A       -0.20707
     60A -> 67A        0.24277
     61A -> 67A        0.29418
     62A -> 67A        0.21216
     63A -> 67A       -0.48045
     64A -> 67A        0.12268
     60B -> 67B        0.48236
     61B -> 66B       -0.15909
     61B -> 67B       -0.17043
     62B -> 67B        0.20437
     63B -> 67B       -0.37320

 Excited State  23:  2.149-A      5.2255 eV  237.27 nm  f=0.1131  <S**2>=0.904
     60A -> 66A       -0.50220
     61A -> 66A       -0.21712
     62A -> 67A       -0.10875
     63A -> 66A        0.21223
     60B -> 65B        0.10286
     60B -> 66B        0.68050
     60B -> 67B       -0.11232
     61B -> 66B       -0.15298
     61B -> 67B        0.10519
     62B -> 66B        0.15925
     62B -> 67B       -0.12643
     63B -> 66B       -0.11804

 Excited State  24:  2.095-A      5.3754 eV  230.65 nm  f=0.0020  <S**2>=0.847
     65A -> 71A        0.93607
     65A -> 72A        0.23314
     65A -> 73A        0.11019

 Excited State  25:  3.393-A      5.3971 eV  229.72 nm  f=0.0007  <S**2>=2.628
     53A -> 66A       -0.19161
     55A -> 66A        0.30425
     56A -> 66A        0.39186
     60A -> 70A       -0.10334
     61A -> 70A       -0.14459
     63A -> 70A        0.18809
     65A -> 71A        0.16943
     53B -> 65B       -0.21689
     53B -> 66B       -0.16609
     55B -> 65B       -0.26805
     55B -> 66B       -0.19657
     57B -> 65B       -0.29389
     57B -> 66B       -0.20728
     60B -> 69B       -0.20275
     61B -> 69B        0.11401
     62B -> 69B       -0.10670
     63B -> 69B        0.13900

 Excited State  26:  3.406-A      5.4825 eV  226.15 nm  f=0.0028  <S**2>=2.650
     60A -> 68A        0.41905
     62A -> 68A       -0.24947
     63A -> 68A        0.27854
     64A -> 69A       -0.17383
     60B -> 68B        0.24692
     63B -> 68B        0.72403

 Excited State  27:  2.107-A      5.5672 eV  222.70 nm  f=0.0054  <S**2>=0.860
     59B -> 65B        0.88355
     59B -> 66B       -0.39229

 Excited State  28:  2.773-A      5.8294 eV  212.69 nm  f=0.0035  <S**2>=1.673
     61B -> 67B        0.24190
     64B -> 67B        0.95711

 Excited State  29:  3.380-A      5.8787 eV  210.90 nm  f=0.0005  <S**2>=2.606
     61A -> 67A        0.42380
     62A -> 67A        0.49933
     63A -> 67A        0.50307
     64A -> 67A       -0.25276
     60B -> 67B        0.11014
     61B -> 67B       -0.30020
     62B -> 67B       -0.37023

 Excited State  30:  2.248-A      5.9042 eV  209.99 nm  f=0.0032  <S**2>=1.014
     61A -> 67A        0.19064
     62A -> 67A        0.20076
     63A -> 67A        0.34701
     64A -> 67A       -0.17374
     60B -> 67B       -0.15343
     61B -> 67B        0.38638
     62B -> 67B        0.70961
     63B -> 67B       -0.24673
     64B -> 67B       -0.14406

 Excited State  31:  2.761-A      5.9766 eV  207.45 nm  f=0.0106  <S**2>=1.656
     60A -> 67A        0.10974
     60A -> 69A        0.21949
     62A -> 69A       -0.13488
     63A -> 69A        0.13689
     58B -> 65B       -0.39727
     58B -> 66B        0.20730
     60B -> 67B        0.25184
     61B -> 67B        0.13882
     62B -> 67B        0.17540
     63B -> 67B        0.63633
     63B -> 70B        0.24341

 Excited State  32:  2.575-A      5.9863 eV  207.11 nm  f=0.0102  <S**2>=1.408
     60A -> 69A       -0.24394
     62A -> 67A        0.17759
     62A -> 69A        0.15008
     63A -> 67A       -0.11579
     63A -> 69A       -0.14659
     58B -> 65B        0.49116
     58B -> 66B       -0.24263
     60B -> 67B        0.15825
     61B -> 67B        0.12044
     62B -> 67B        0.15873
     63B -> 67B        0.55870
     63B -> 70B       -0.24920

 Excited State  33:  2.864-A      6.0298 eV  205.62 nm  f=0.0025  <S**2>=1.801
     60A -> 68A        0.11308
     61A -> 67A       -0.22534
     62A -> 67A        0.39345
     62A -> 68A       -0.13113
     63A -> 67A        0.24342
     63A -> 68A        0.12398
     64A -> 67A        0.78812
     64A -> 69A        0.17514
     61B -> 67B        0.10201

 Excited State  34:  2.088-A      6.1043 eV  203.11 nm  f=0.0020  <S**2>=0.840
     65A -> 71A       -0.21809
     65A -> 72A        0.92197
     65A -> 73A       -0.17226
     58B -> 65B        0.10199

 Excited State  35:  2.579-A      6.1075 eV  203.00 nm  f=0.0041  <S**2>=1.412
     60A -> 67A        0.10390
     60A -> 69A        0.28076
     62A -> 69A       -0.18272
     63A -> 69A        0.18027
     65A -> 72A       -0.19468
     53B -> 65B        0.13240
     57B -> 65B       -0.27201
     57B -> 66B        0.15952
     58B -> 65B        0.60531
     58B -> 66B       -0.23878
     60B -> 70B        0.11919
     63B -> 70B        0.31980
     64B -> 68B        0.11663

 Excited State  36:  2.060-A      6.1599 eV  201.28 nm  f=0.0012  <S**2>=0.811
     65A -> 71A       -0.16137
     65A -> 72A        0.12779
     65A -> 73A        0.94502
     65A -> 75A       -0.11588
     65A -> 76A       -0.11850

 The electronic state is 2-A.
 Alpha  occ. eigenvalues --  -19.17775 -19.14385 -10.28306 -10.24833 -10.20222
 Alpha  occ. eigenvalues --  -10.20165 -10.20101 -10.19837 -10.19689 -10.19685
 Alpha  occ. eigenvalues --  -10.19454 -10.18733 -10.18593 -10.18549 -10.18488
 Alpha  occ. eigenvalues --  -10.18481 -10.18446 -10.18427  -1.05817  -1.03919
 Alpha  occ. eigenvalues --   -0.86205  -0.85015  -0.77908  -0.77429  -0.75284
 Alpha  occ. eigenvalues --   -0.74222  -0.72997  -0.72488  -0.64857  -0.63069
 Alpha  occ. eigenvalues --   -0.60850  -0.59826  -0.57262  -0.55310  -0.51784
 Alpha  occ. eigenvalues --   -0.51210  -0.49724  -0.46640  -0.46395  -0.46036
 Alpha  occ. eigenvalues --   -0.45762  -0.44581  -0.44145  -0.43145  -0.42701
 Alpha  occ. eigenvalues --   -0.42383  -0.41821  -0.41516  -0.39036  -0.38695
 Alpha  occ. eigenvalues --   -0.38124  -0.37581  -0.36736  -0.35888  -0.35513
 Alpha  occ. eigenvalues --   -0.34862  -0.34626  -0.33979  -0.32469  -0.27066
 Alpha  occ. eigenvalues --   -0.26097  -0.25854  -0.25597  -0.25194  -0.15149
 Alpha virt. eigenvalues --   -0.06035  -0.00893  -0.00024   0.02818   0.03511
 Alpha virt. eigenvalues --    0.08315   0.09768   0.11119   0.12124   0.13426
 Alpha virt. eigenvalues --    0.13606   0.14989   0.15118   0.15594   0.16039

  Beta  occ. eigenvalues --  -19.17506 -19.14377 -10.28292 -10.23906 -10.20226
  Beta  occ. eigenvalues --  -10.20159 -10.20083 -10.19824 -10.19696 -10.19691
  Beta  occ. eigenvalues --  -10.19648 -10.18730 -10.18696 -10.18552 -10.18480
  Beta  occ. eigenvalues --  -10.18437 -10.18158 -10.18102  -1.05110  -1.03864
  Beta  occ. eigenvalues --   -0.86191  -0.84674  -0.77473  -0.77036  -0.75270
  Beta  occ. eigenvalues --   -0.73930  -0.72973  -0.72169  -0.63926  -0.63033
  Beta  occ. eigenvalues --   -0.60841  -0.59638  -0.56938  -0.55298  -0.51538
  Beta  occ. eigenvalues --   -0.51188  -0.49011  -0.46620  -0.46238  -0.45734
  Beta  occ. eigenvalues --   -0.45163  -0.44568  -0.44073  -0.42771  -0.42625
  Beta  occ. eigenvalues --   -0.41973  -0.41686  -0.41343  -0.39017  -0.38418
  Beta  occ. eigenvalues --   -0.37677  -0.37131  -0.36247  -0.35840  -0.35315
  Beta  occ. eigenvalues --   -0.34630  -0.34493  -0.33383  -0.32007  -0.26360
  Beta  occ. eigenvalues --   -0.26013  -0.25654  -0.24874  -0.24462
  Beta virt. eigenvalues --   -0.07133  -0.05019  -0.00839   0.00609   0.03499
  Beta virt. eigenvalues --    0.05255   0.08510   0.09829   0.11229   0.12193
  Beta virt. eigenvalues --    0.13545   0.13756   0.15049   0.15316   0.15767

 Mulliken charges and spin densities:
               1          2
     1  C    0.399014   0.008727
     2  C    0.247397   0.602673
     3  O   -0.526236   0.003281
     4  C   -0.399887  -0.000148
     5  H    0.141396  -0.000164
     6  H    0.152244   0.002129
     7  H    0.129457   0.000024
     8  C   -0.383656  -0.052420
     9  H    0.130035   0.001980
    10  H    0.131737   0.024177
    11  H    0.132954   0.032841
    12  C    0.055676  -0.005342
    13  C   -0.109967   0.012148
    14  C   -0.112524   0.008461
    15  C   -0.101919  -0.005971
    16  H    0.112185  -0.000566
    17  C   -0.102839  -0.005946
    18  H    0.111563  -0.000414
    19  C   -0.088284   0.013286
    20  H    0.109546   0.000208
    21  H    0.110063   0.000192
    22  H    0.111497  -0.000600
    23  C    0.096885  -0.161998
    24  C   -0.143104   0.230714
    25  C   -0.140358   0.222791
    26  C   -0.103468  -0.121817
    27  H    0.101628  -0.010245
    28  C   -0.108516  -0.119728
    29  H    0.092524  -0.009771
    30  C   -0.113450   0.258648
    31  H    0.095162   0.004366
    32  H    0.095442   0.004251
    33  H    0.092883  -0.012028
    34  O   -0.553788   0.070580
    35  H    0.338707   0.005679
 Sum of Mulliken charges =  -0.00000   1.00000

 Dipole moment (field-independent basis, Debye):
    X=             -1.0480    Y=              2.9022    Z=             -0.3678  Tot=              3.1075
 Quadrupole moment (field-independent basis, Debye-Ang):
   XX=           -110.5559   YY=           -101.2759   ZZ=            -96.2170
   XY=             -1.9536   XZ=             -6.4421   YZ=              1.8247

 Normal termination of Gaussian 16 at Sat May 25 04:46:07 2019.
