 Gaussian 16, Revision B.01,
 Gaussian 16:  ES64L-G16RevB.01 20-Dec-2017

 ----------------------------------------------------------------------
 #p td=(50-50,nstates=36) ub3lyp/6-31g(d,p) scrf=(iefpcm,solvent=aceton
 itrile) guess=(mix,always) empiricaldispersion=gd3
 ----------------------------------------------------------------------

 -------------------
 Title Card Required
 -------------------
 Symbolic Z-matrix:
 Charge =  0 Multiplicity = 2

                         Standard orientation:
 ---------------------------------------------------------------------
 Center     Atomic      Atomic             Coordinates (Angstroms)
 Number     Number       Type             X           Y           Z
 ---------------------------------------------------------------------
      1          6           0        0.526385    1.283284   -0.419762
      2          6           0       -0.541235    1.277464    0.485861
      3          8           0        1.222224    2.487651   -0.329067
      4          6           0        0.066494    1.385454   -1.935072
      5          1           0        0.944686    1.425967   -2.578041
      6          1           0       -0.523899    0.498844   -2.170679
      7          1           0       -0.551722    2.270142   -2.073377
      8          6           0       -0.033910    1.348959    1.951362
      9          1           0        0.576688    0.492265    2.239121
     10          1           0        0.575240    2.250967    2.068227
     11          1           0       -0.893936    1.415939    2.619300
     12          6           0        1.515850    0.100936   -0.296916
     13          6           0        2.712499    0.291790    0.407703
     14          6           0        1.270008   -1.152778   -0.871882
     15          6           0        3.637109   -0.744108    0.542625
     16          1           0        2.918351    1.260324    0.851162
     17          6           0        2.193537   -2.190883   -0.738091
     18          1           0        0.352254   -1.334156   -1.418675
     19          6           0        3.380148   -1.991503   -0.029968
     20          1           0        4.556683   -0.575457    1.095178
     21          1           0        1.983135   -3.155389   -1.190472
     22          1           0        4.097682   -2.799905    0.073600
     23          6           0       -1.514874    0.093385    0.322428
     24          6           0       -2.654336    0.229068   -0.483919
     25          6           0       -1.296813   -1.134859    0.962261
     26          6           0       -3.544001   -0.833230   -0.652867
     27          1           0       -2.843860    1.177510   -0.970965
     28          6           0       -2.185223   -2.198255    0.794997
     29          1           0       -0.422026   -1.278497    1.585050
     30          6           0       -3.312988   -2.053083   -0.014701
     31          1           0       -4.419938   -0.703778   -1.281974
     32          1           0       -1.992507   -3.140398    1.299628
     33          1           0       -4.004833   -2.880072   -0.144200
     34          8           0       -1.343087    2.465014    0.285524
     35          1           0       -0.696993    3.184528    0.201107
 ---------------------------------------------------------------------

 SCF Done:  E(UB3LYP) =  -770.371939876     A.U. after   24 cycles

 Excitation energies and oscillator strengths:

 Excited State   1:  2.003-A      0.6060 eV 2045.94 nm  f=0.0009  <S**2>=0.753
     58B -> 65B        0.16475
     59B -> 65B        0.72298
     60B -> 65B        0.37925
     61B -> 65B       -0.18126
     62B -> 65B        0.22202
     63B -> 65B       -0.29405
     64B -> 65B        0.35980
     59B <- 65B        0.10234
 This state for optimization and/or second-order correction.
 Total Energy, E(TD-HF/TD-DFT) =  -770.349669693
 Copying the excited state density for this state as the 1-particle RhoCI density.

 Excited State   2:  2.019-A      1.9153 eV  647.33 nm  f=0.0050  <S**2>=0.769
     59B -> 65B       -0.15354
     60B -> 65B       -0.13509
     61B -> 65B        0.28497
     62B -> 65B        0.45278
     63B -> 65B        0.43855
     64B -> 65B        0.68823

 Excited State   3:  2.018-A      1.9777 eV  626.92 nm  f=0.0033  <S**2>=0.768
     62B -> 65B        0.81483
     64B -> 65B       -0.55564

 Excited State   4:  2.018-A      2.2194 eV  558.63 nm  f=0.0069  <S**2>=0.768
     59B -> 65B        0.39962
     60B -> 65B        0.16175
     62B -> 65B       -0.24085
     63B -> 65B        0.83364
     64B -> 65B       -0.22099

 Excited State   5:  2.018-A      2.3398 eV  529.90 nm  f=0.0005  <S**2>=0.768
     59B -> 65B        0.30438
     61B -> 65B        0.91641
     63B -> 65B       -0.14047
     64B -> 65B       -0.17860

 Excited State   6:  2.017-A      2.5973 eV  477.36 nm  f=0.0031  <S**2>=0.767
     59B -> 65B       -0.39026
     60B -> 65B        0.88428
     61B -> 65B        0.18812

 Excited State   7:  2.010-A      3.4755 eV  356.74 nm  f=0.0034  <S**2>=0.760
     40B -> 65B       -0.10957
     48B -> 65B       -0.20002
     49B -> 65B       -0.19587
     50B -> 65B        0.16469
     52B -> 65B        0.12431
     55B -> 65B       -0.10324
     57B -> 65B        0.30898
     58B -> 65B        0.82562
     60B -> 65B       -0.11453

 Excited State   8:  3.458-A      3.7494 eV  330.67 nm  f=0.0001  <S**2>=2.740
     61A -> 68A       -0.10694
     62A -> 69A       -0.25340
     63A -> 66A        0.31598
     64A -> 67A        0.10386
     64A -> 68A       -0.28819
     64A -> 69A        0.15565
     65A -> 67A        0.35860
     65A -> 68A        0.20149
     60B -> 68B        0.11920
     61B -> 68B        0.11062
     61B -> 69B        0.24520
     62B -> 66B       -0.18498
     62B -> 68B        0.17284
     63B -> 66B        0.29330
     63B -> 68B        0.19964
     63B -> 69B       -0.16805
     64B -> 67B        0.37306
     64B -> 68B       -0.19511

 Excited State   9:  3.445-A      3.7793 eV  328.06 nm  f=0.0002  <S**2>=2.717
     62A -> 66A       -0.11821
     62A -> 67A        0.30785
     63A -> 66A        0.19252
     63A -> 68A       -0.19382
     63A -> 69A        0.23289
     64A -> 66A        0.31542
     64A -> 67A        0.11335
     65A -> 67A        0.10359
     65A -> 68A       -0.28694
     65A -> 69A       -0.18143
     60B -> 67B        0.10659
     61B -> 66B        0.21699
     61B -> 67B        0.23972
     62B -> 66B       -0.26890
     62B -> 67B        0.20248
     62B -> 68B        0.14972
     62B -> 69B       -0.16607
     63B -> 67B        0.13481
     63B -> 69B        0.21224
     64B -> 68B        0.31237
     64B -> 69B        0.14678

 Excited State  10:  2.033-A      3.8940 eV  318.39 nm  f=0.0013  <S**2>=0.783
     49B -> 65B       -0.22728
     50B -> 65B        0.12020
     55B -> 65B       -0.44241
     56B -> 65B       -0.12877
     57B -> 65B        0.67544
     58B -> 65B       -0.42257
     59B -> 65B        0.17377

 Excited State  11:  2.024-A      4.4491 eV  278.67 nm  f=0.0050  <S**2>=0.774
     54B -> 65B        0.18919
     55B -> 65B       -0.42162
     56B -> 65B        0.84565
     57B -> 65B       -0.19805

 Excited State  12:  2.052-A      4.5897 eV  270.14 nm  f=0.0005  <S**2>=0.803
     53B -> 65B        0.10596
     55B -> 65B        0.70615
     56B -> 65B        0.42281
     57B -> 65B        0.48877
     58B -> 65B       -0.13350

 Excited State  13:  2.390-A      4.6643 eV  265.81 nm  f=0.0025  <S**2>=1.178
     62A -> 69A       -0.10800
     63A -> 67A       -0.15728
     64A -> 68A        0.11171
     65A -> 66A       -0.17337
     51B -> 65B       -0.24474
     54B -> 65B        0.79571
     56B -> 65B       -0.23006
     57B -> 65B       -0.11436
     61B -> 69B        0.10551
     62B -> 67B       -0.15427
     64B -> 66B        0.16577

 Excited State  14:  3.283-A      4.6769 eV  265.10 nm  f=0.0010  <S**2>=2.445
     62A -> 69A        0.23708
     63A -> 67A        0.28366
     64A -> 67A       -0.12046
     64A -> 68A       -0.26196
     65A -> 66A        0.37963
     65A -> 68A        0.13728
     51B -> 65B       -0.12982
     54B -> 65B        0.34401
     61B -> 69B       -0.23279
     62B -> 67B        0.16722
     62B -> 68B        0.14315
     63B -> 66B       -0.19255
     63B -> 67B       -0.20498
     63B -> 68B        0.19384
     63B -> 69B        0.11500
     64B -> 66B       -0.36823
     64B -> 67B        0.13049
     64B -> 68B       -0.13967

 Excited State  15:  3.452-A      4.6954 eV  264.06 nm  f=0.0000  <S**2>=2.729
     62A -> 68A       -0.26129
     63A -> 66A       -0.32380
     64A -> 66A        0.16823
     64A -> 68A        0.12783
     64A -> 69A       -0.27774
     65A -> 67A        0.35993
     65A -> 68A        0.16713
     65A -> 69A        0.12749
     61B -> 68B        0.25510
     62B -> 66B        0.16739
     62B -> 69B        0.14318
     63B -> 66B       -0.29777
     63B -> 67B        0.13672
     63B -> 68B       -0.17085
     63B -> 69B        0.21714
     64B -> 66B        0.17427
     64B -> 67B        0.33595
     64B -> 68B       -0.13725
     64B -> 69B       -0.14159

 Excited State  16:  3.386-A      4.7162 eV  262.89 nm  f=0.0002  <S**2>=2.616
     62A -> 66A        0.32066
     63A -> 66A       -0.12416
     63A -> 67A        0.14380
     63A -> 69A       -0.28189
     64A -> 67A        0.33647
     65A -> 68A       -0.31957
     51B -> 65B       -0.12690
     54B -> 65B        0.18415
     61B -> 66B       -0.23417
     61B -> 67B        0.19724
     62B -> 66B        0.29673
     62B -> 67B        0.16315
     62B -> 69B        0.22003
     63B -> 67B        0.17131
     63B -> 69B       -0.17699
     64B -> 67B        0.10287
     64B -> 68B        0.32105

 Excited State  17:  3.413-A      4.7278 eV  262.25 nm  f=0.0002  <S**2>=2.662
     62A -> 67A        0.34791
     63A -> 66A       -0.18930
     63A -> 68A        0.28772
     64A -> 66A       -0.29217
     64A -> 68A       -0.10400
     64A -> 69A       -0.10078
     65A -> 69A       -0.33160
     51B -> 65B        0.11178
     54B -> 65B       -0.13667
     61B -> 66B        0.22449
     61B -> 67B        0.25990
     62B -> 66B        0.20821
     62B -> 67B       -0.24801
     62B -> 68B       -0.19771
     63B -> 68B        0.23948
     63B -> 69B        0.13745
     64B -> 69B        0.32270

 Excited State  18:  2.033-A      5.0453 eV  245.74 nm  f=0.0023  <S**2>=0.783
     39B -> 65B       -0.11990
     40B -> 65B       -0.11071
     48B -> 65B       -0.35135
     49B -> 65B       -0.48280
     50B -> 65B        0.12408
     51B -> 65B       -0.20933
     52B -> 65B        0.53301
     53B -> 65B        0.11910
     55B -> 65B        0.24092
     57B -> 65B       -0.29726
     58B -> 65B       -0.24520

 Excited State  19:  3.422-A      5.0686 eV  244.61 nm  f=0.0001  <S**2>=2.677
     62A -> 68A        0.22405
     63A -> 67A        0.36796
     64A -> 68A       -0.20997
     64A -> 69A       -0.23784
     65A -> 66A       -0.39140
     65A -> 67A        0.10909
     65A -> 69A        0.10050
     53B -> 65B       -0.12885
     61B -> 68B       -0.21409
     62B -> 67B        0.22699
     62B -> 69B        0.14153
     63B -> 67B       -0.30445
     63B -> 68B        0.20351
     63B -> 69B        0.15654
     64B -> 66B        0.40452
     64B -> 69B       -0.10595

 Excited State  20:  2.098-A      5.1039 eV  242.92 nm  f=0.0001  <S**2>=0.850
     48B -> 65B       -0.15129
     50B -> 65B        0.14905
     51B -> 65B        0.42782
     53B -> 65B        0.82072
     54B -> 65B        0.10315
     55B -> 65B       -0.10891

 Excited State  21:  3.445-A      5.1178 eV  242.26 nm  f=0.0000  <S**2>=2.717
     62A -> 66A       -0.31642
     63A -> 67A        0.20958
     63A -> 68A       -0.23538
     63A -> 69A       -0.15394
     64A -> 66A       -0.13944
     64A -> 67A        0.36036
     64A -> 68A        0.12413
     65A -> 68A        0.23393
     65A -> 69A       -0.28072
     61B -> 66B        0.23188
     61B -> 67B       -0.18536
     62B -> 66B        0.19449
     62B -> 67B        0.26828
     62B -> 68B        0.14396
     62B -> 69B        0.10818
     63B -> 66B        0.14604
     63B -> 67B        0.10319
     63B -> 68B       -0.23940
     64B -> 68B       -0.18010
     64B -> 69B        0.28587

 Excited State  22:  2.028-A      5.2080 eV  238.07 nm  f=0.0009  <S**2>=0.779
     48B -> 65B        0.27201
     49B -> 65B        0.25906
     50B -> 65B       -0.30563
     51B -> 65B        0.23781
     52B -> 65B        0.79032
     54B -> 65B        0.12726
     57B -> 65B        0.17970

 Excited State  23:  2.025-A      5.3021 eV  233.84 nm  f=0.0026  <S**2>=0.776
     48B -> 65B       -0.21613
     49B -> 65B       -0.12721
     50B -> 65B        0.27240
     51B -> 65B        0.71063
     53B -> 65B       -0.49224
     54B -> 65B        0.29259

 Excited State  24:  2.007-A      5.3449 eV  231.97 nm  f=0.0053  <S**2>=0.757
     62A -> 68A       -0.17902
     63A -> 67A       -0.31574
     64A -> 68A        0.17509
     64A -> 69A        0.19959
     65A -> 66A        0.47316
     65A -> 67A       -0.14157
     61B -> 68B       -0.18986
     62B -> 67B        0.22438
     62B -> 69B        0.12234
     63B -> 67B       -0.28602
     63B -> 68B        0.16777
     63B -> 69B        0.12061
     64B -> 66B        0.50716

 Excited State  25:  2.013-A      5.4197 eV  228.77 nm  f=0.0001  <S**2>=0.763
     62A -> 66A       -0.25907
     63A -> 67A        0.16280
     63A -> 68A       -0.20877
     63A -> 69A       -0.11859
     64A -> 66A       -0.12557
     64A -> 67A        0.36351
     64A -> 68A        0.12837
     65A -> 68A        0.24443
     65A -> 69A       -0.22414
     61B -> 66B       -0.22346
     61B -> 67B        0.19761
     62B -> 66B       -0.22815
     62B -> 67B       -0.30862
     62B -> 68B       -0.15067
     62B -> 69B       -0.11054
     63B -> 66B       -0.18554
     63B -> 67B       -0.13724
     63B -> 68B        0.26947
     64B -> 68B        0.21963
     64B -> 69B       -0.29135

 Excited State  26:  2.020-A      5.4895 eV  225.86 nm  f=0.0047  <S**2>=0.770
     49B -> 65B        0.59264
     50B -> 65B        0.72378
     51B -> 65B       -0.22976
     52B -> 65B        0.19197

 Excited State  27:  2.020-A      5.5915 eV  221.74 nm  f=0.0020  <S**2>=0.770
     46B -> 65B       -0.10744
     48B -> 65B        0.75531
     49B -> 65B       -0.43027
     50B -> 65B        0.42721
     56B -> 65B        0.11814

 Excited State  28:  2.238-A      5.7657 eV  215.04 nm  f=0.0027  <S**2>=1.002
     63A -> 66A       -0.15624
     65A -> 66A       -0.16354
     65A -> 67A       -0.43249
     61B -> 67B       -0.16674
     61B -> 68B       -0.10872
     63B -> 66B        0.25131
     63B -> 67B       -0.22904
     63B -> 68B       -0.17406
     64B -> 67B        0.69947
     64B -> 68B        0.19561

 Excited State  29:  3.277-A      5.7937 eV  214.00 nm  f=0.0025  <S**2>=2.435
     62A -> 66A        0.19050
     62A -> 67A        0.18155
     62A -> 68A       -0.10588
     63A -> 66A       -0.10966
     63A -> 68A        0.15430
     64A -> 66A        0.44928
     64A -> 67A        0.28651
     64A -> 68A       -0.23762
     65A -> 66A       -0.29148
     65A -> 67A       -0.38500
     65A -> 68A        0.26445
     61B -> 67B        0.13753
     63B -> 67B        0.22428
     63B -> 68B        0.18720
     64B -> 66B        0.10077
     64B -> 67B       -0.11281
     64B -> 68B       -0.25406

 Excited State  30:  2.069-A      5.8707 eV  211.19 nm  f=0.0205  <S**2>=0.820
     63A -> 66A        0.10475
     63A -> 67A       -0.10851
     63A -> 68A        0.18781
     64A -> 66A        0.42683
     64A -> 67A        0.21712
     65A -> 67A        0.35268
     65A -> 68A        0.20863
     65A -> 69A       -0.13159
     61B -> 67B       -0.11425
     62B -> 66B        0.25450
     62B -> 67B       -0.11383
     63B -> 66B        0.13671
     63B -> 67B       -0.41339
     63B -> 68B       -0.17199
     64B -> 66B       -0.26052
     64B -> 67B       -0.13577
     64B -> 68B        0.22719
     64B -> 69B       -0.11859

 Excited State  31:  2.943-A      5.9302 eV  209.07 nm  f=0.0016  <S**2>=1.916
     62A -> 68A        0.17884
     63A -> 66A        0.25774
     63A -> 67A        0.32912
     63A -> 68A        0.32249
     64A -> 66A        0.26198
     64A -> 67A       -0.11637
     64A -> 68A        0.59086
     65A -> 66A        0.10058
     65A -> 69A       -0.16407
     61B -> 66B       -0.15528
     62B -> 68B       -0.11770
     63B -> 69B       -0.10783
     64B -> 66B        0.11796
     64B -> 67B        0.15804
     64B -> 68B       -0.20805

 Excited State  32:  2.644-A      5.9382 eV  208.79 nm  f=0.0048  <S**2>=1.498
     62A -> 66A       -0.13904
     63A -> 66A       -0.14508
     64A -> 68A        0.12924
     65A -> 68A       -0.18632
     61B -> 66B        0.13454
     61B -> 67B        0.15799
     62B -> 67B        0.10135
     63B -> 66B        0.53675
     63B -> 67B        0.13260
     63B -> 68B        0.13656
     63B -> 69B        0.26177
     64B -> 66B       -0.24603
     64B -> 68B       -0.19847
     64B -> 69B       -0.52531

 Excited State  33:  2.943-A      5.9586 eV  208.08 nm  f=0.0032  <S**2>=1.915
     62A -> 67A        0.26683
     63A -> 66A        0.25273
     63A -> 68A        0.23630
     63A -> 69A        0.15703
     64A -> 66A       -0.28806
     64A -> 67A        0.32072
     64A -> 68A        0.18913
     64A -> 69A       -0.24502
     65A -> 66A        0.19042
     65A -> 67A       -0.17845
     65A -> 68A        0.23485
     65A -> 69A        0.50693
     61B -> 66B        0.18032
     63B -> 69B        0.11643
     64B -> 68B        0.13272

 Excited State  34:  2.628-A      5.9937 eV  206.86 nm  f=0.0142  <S**2>=1.477
     63A -> 66A        0.11422
     63A -> 67A        0.14053
     64A -> 67A       -0.17198
     65A -> 67A       -0.12945
     61B -> 67B       -0.25247
     61B -> 68B        0.18226
     62B -> 66B        0.24503
     62B -> 67B       -0.44487
     62B -> 68B        0.57593
     63B -> 66B        0.10119
     63B -> 67B        0.13534
     63B -> 68B        0.24967
     64B -> 66B        0.13110
     64B -> 68B        0.23856

 Excited State  35:  2.304-A      5.9995 eV  206.66 nm  f=0.0167  <S**2>=1.078
     62A -> 66A        0.44939
     62A -> 67A        0.10885
     62A -> 68A       -0.16421
     63A -> 68A       -0.21075
     64A -> 66A       -0.17652
     64A -> 67A       -0.32974
     64A -> 68A        0.14494
     64A -> 69A        0.20405
     65A -> 66A       -0.22515
     65A -> 68A        0.40764
     65A -> 69A       -0.15005
     47B -> 65B        0.12178
     61B -> 66B        0.17008
     62B -> 67B        0.24577
     62B -> 68B       -0.10276
     63B -> 67B        0.12273
     63B -> 69B        0.13130
     64B -> 66B       -0.12176
     64B -> 68B        0.22086

 Excited State  36:  3.191-A      6.0311 eV  205.58 nm  f=0.0016  <S**2>=2.295
     62A -> 66A       -0.14390
     62A -> 67A       -0.23317
     62A -> 68A        0.21756
     63A -> 66A       -0.19816
     63A -> 68A        0.25502
     64A -> 66A        0.10145
     65A -> 67A        0.13232
     46B -> 65B        0.10351
     47B -> 65B        0.27223
     61B -> 66B        0.21121
     61B -> 67B       -0.34773
     61B -> 68B       -0.21972
     63B -> 67B        0.41420
     63B -> 68B        0.33087
     63B -> 69B        0.10282
     64B -> 67B        0.11982
     64B -> 68B        0.23469

 The electronic state is 2-A.
 Alpha  occ. eigenvalues --  -19.19586 -19.14421 -10.25607 -10.24831 -10.20360
 Alpha  occ. eigenvalues --  -10.19925 -10.19804 -10.19405 -10.19358 -10.19324
 Alpha  occ. eigenvalues --  -10.19288 -10.19259 -10.19122 -10.19088 -10.19046
 Alpha  occ. eigenvalues --  -10.19023 -10.18805 -10.17732  -1.05353  -1.00680
 Alpha  occ. eigenvalues --   -0.86253  -0.85382  -0.80566  -0.75894  -0.74846
 Alpha  occ. eigenvalues --   -0.74559  -0.73028  -0.72769  -0.66248  -0.62265
 Alpha  occ. eigenvalues --   -0.60740  -0.60016  -0.59643  -0.55528  -0.53164
 Alpha  occ. eigenvalues --   -0.51064  -0.50661  -0.47712  -0.47091  -0.46014
 Alpha  occ. eigenvalues --   -0.44955  -0.44666  -0.44396  -0.42516  -0.42328
 Alpha  occ. eigenvalues --   -0.41607  -0.41324  -0.40648  -0.39296  -0.38052
 Alpha  occ. eigenvalues --   -0.37558  -0.37024  -0.36865  -0.36304  -0.34695
 Alpha  occ. eigenvalues --   -0.34413  -0.33759  -0.33233  -0.31517  -0.29962
 Alpha  occ. eigenvalues --   -0.27894  -0.25903  -0.25127  -0.24737  -0.24380
 Alpha virt. eigenvalues --   -0.01132  -0.01051  -0.00519   0.00283   0.08928
 Alpha virt. eigenvalues --    0.09262   0.10863   0.12279   0.12634   0.13296
 Alpha virt. eigenvalues --    0.13697   0.14739   0.15080   0.15382   0.15617

  Beta  occ. eigenvalues --  -19.17438 -19.14422 -10.25628 -10.24804 -10.20327
  Beta  occ. eigenvalues --  -10.19928 -10.19558 -10.19400 -10.19351 -10.19315
  Beta  occ. eigenvalues --  -10.19286 -10.19257 -10.19120 -10.19087 -10.19046
  Beta  occ. eigenvalues --  -10.19023 -10.18802 -10.17717  -1.03622  -0.97920
  Beta  occ. eigenvalues --   -0.86041  -0.85349  -0.79928  -0.75603  -0.74788
  Beta  occ. eigenvalues --   -0.74535  -0.72692  -0.72367  -0.65967  -0.62061
  Beta  occ. eigenvalues --   -0.60700  -0.60000  -0.59517  -0.55356  -0.53043
  Beta  occ. eigenvalues --   -0.50938  -0.49554  -0.47466  -0.46440  -0.44972
  Beta  occ. eigenvalues --   -0.44924  -0.44364  -0.44219  -0.42410  -0.42156
  Beta  occ. eigenvalues --   -0.41463  -0.40832  -0.39827  -0.38933  -0.37908
  Beta  occ. eigenvalues --   -0.36976  -0.36812  -0.36230  -0.35991  -0.34331
  Beta  occ. eigenvalues --   -0.34133  -0.33642  -0.32507  -0.28718  -0.27737
  Beta  occ. eigenvalues --   -0.25886  -0.25119  -0.24876  -0.24294
  Beta virt. eigenvalues --   -0.14709  -0.01075  -0.00976  -0.00471   0.00304
  Beta virt. eigenvalues --    0.08966   0.09330   0.11026   0.12560   0.12833
  Beta virt. eigenvalues --    0.13429   0.13820   0.14811   0.15130   0.15473

 Mulliken charges and spin densities:
               1          2
     1  C    0.206243  -0.028454
     2  C    0.245901   0.009904
     3  O   -0.397863   0.844393
     4  C   -0.315723   0.104937
     5  H    0.135815  -0.003696
     6  H    0.144301   0.030214
     7  H    0.134631  -0.003623
     8  C   -0.327587   0.015235
     9  H    0.118313  -0.000398
    10  H    0.110324  -0.001540
    11  H    0.119003  -0.001180
    12  C    0.082943   0.015817
    13  C   -0.119548   0.012702
    14  C   -0.114855   0.005620
    15  C   -0.105484  -0.004881
    16  H    0.105710  -0.001143
    17  C   -0.111947  -0.003083
    18  H    0.106455  -0.000243
    19  C   -0.094847   0.008681
    20  H    0.104636   0.000495
    21  H    0.104999   0.000088
    22  H    0.104119  -0.000382
    23  C    0.069576  -0.000924
    24  C   -0.115558   0.002577
    25  C   -0.117902   0.001138
    26  C   -0.107057  -0.001293
    27  H    0.108782  -0.000169
    28  C   -0.112096  -0.000724
    29  H    0.101635  -0.000039
    30  C   -0.096113   0.002451
    31  H    0.101260   0.000037
    32  H    0.102325   0.000010
    33  H    0.101435  -0.000100
    34  O   -0.590225   0.000527
    35  H    0.318399  -0.002956
 Sum of Mulliken charges =  -0.00000   1.00000

 Dipole moment (field-independent basis, Debye):
    X=              0.7668    Y=             -2.3375    Z=             -0.5206  Tot=              2.5145
 Quadrupole moment (field-independent basis, Debye-Ang):
   XX=           -102.8491   YY=           -101.0456   ZZ=           -102.3208
   XY=              0.4620   XZ=              6.9411   YZ=             -0.3906

 Normal termination of Gaussian 16 at Sat May 25 04:46:26 2019.
