 Gaussian 16, Revision B.01,
 Gaussian 16:  ES64L-G16RevB.01 20-Dec-2017

 ----------------------------------------------------------------------
 #p td=(50-50,nstates=36) ub3lyp/6-31g(d,p) scrf=(iefpcm,solvent=aceton
 itrile) guess=(mix,always) empiricaldispersion=gd3
 ----------------------------------------------------------------------

 -------------------
 Title Card Required
 -------------------
 Symbolic Z-matrix:
 Charge =  0 Multiplicity = 2

                         Standard orientation:
 ---------------------------------------------------------------------
 Center     Atomic      Atomic             Coordinates (Angstroms)
 Number     Number       Type             X           Y           Z
 ---------------------------------------------------------------------
      1          6           0       -0.945554   -1.410729   -0.898479
      2          6           0        0.744212   -1.250365    0.936998
      3          8           0       -1.340918   -2.500556   -0.441433
      4          6           0        0.057250   -1.413026   -2.036034
      5          1           0       -0.508020   -1.405900   -2.975889
      6          1           0        0.727908   -0.554714   -2.040709
      7          1           0        0.646590   -2.328429   -1.987534
      8          6           0       -0.243077   -1.185278    2.064314
      9          1           0       -0.709388   -0.206110    2.163137
     10          1           0       -1.035163   -1.921846    1.906233
     11          1           0        0.263651   -1.427325    3.008115
     12          6           0       -1.665174   -0.147024   -0.564832
     13          6           0       -2.835505   -0.226542    0.211456
     14          6           0       -1.222451    1.115707   -0.994427
     15          6           0       -3.539315    0.923020    0.556053
     16          1           0       -3.174872   -1.204891    0.532681
     17          6           0       -1.926664    2.267634   -0.645923
     18          1           0       -0.318562    1.208953   -1.583845
     19          6           0       -3.084577    2.175963    0.130003
     20          1           0       -4.442247    0.846513    1.154416
     21          1           0       -1.567672    3.237448   -0.976592
     22          1           0       -3.630972    3.074580    0.400449
     23          6           0        1.619807   -0.172576    0.574983
     24          6           0        2.739312   -0.402780   -0.269615
     25          6           0        1.380251    1.159607    1.002769
     26          6           0        3.563875    0.642950   -0.663107
     27          1           0        2.938736   -1.412707   -0.607126
     28          6           0        2.210794    2.198274    0.599923
     29          1           0        0.533744    1.379899    1.641753
     30          6           0        3.307604    1.952144   -0.234691
     31          1           0        4.413884    0.440413   -1.308408
     32          1           0        2.001748    3.209258    0.937281
     33          1           0        3.952955    2.767505   -0.546401
     34          8           0        1.163706   -2.502604    0.595026
     35          1           0        0.360659   -3.039247    0.437362
 ---------------------------------------------------------------------

 SCF Done:  E(UB3LYP) =  -770.422761077     A.U. after   19 cycles

 Excitation energies and oscillator strengths:

 Excited State   1:  2.056-A      2.4304 eV  510.14 nm  f=0.1602  <S**2>=0.807
     65A -> 66A        0.98642
 This state for optimization and/or second-order correction.
 Total Energy, E(TD-HF/TD-DFT) =  -770.333446374
 Copying the excited state density for this state as the 1-particle RhoCI density.

 Excited State   2:  2.428-A      2.9020 eV  427.23 nm  f=0.0030  <S**2>=1.224
     63A -> 66A       -0.13885
     62B -> 65B       -0.35192
     63B -> 65B        0.79307
     63B -> 66B       -0.21344
     64B -> 65B       -0.35387

 Excited State   3:  2.336-A      3.1489 eV  393.74 nm  f=0.0129  <S**2>=1.114
     60A -> 66A       -0.11433
     62A -> 66A       -0.17592
     65A -> 67A        0.35911
     65A -> 68A        0.30636
     60B -> 66B       -0.13753
     61B -> 65B        0.15639
     62B -> 65B        0.14887
     63B -> 65B        0.37024
     64B -> 65B        0.66682

 Excited State   4:  2.287-A      3.1986 eV  387.62 nm  f=0.0276  <S**2>=1.057
     60A -> 66A       -0.10694
     62A -> 66A       -0.14139
     65A -> 67A       -0.41891
     65A -> 68A       -0.28721
     65A -> 69A       -0.19092
     65A -> 70A        0.11528
     61B -> 65B       -0.17523
     61B -> 66B       -0.13132
     62B -> 65B        0.68545
     63B -> 65B        0.25183
     64B -> 66B       -0.10230

 Excited State   5:  2.640-A      3.2912 eV  376.72 nm  f=0.0023  <S**2>=1.492
     61A -> 67A       -0.11341
     62A -> 66A       -0.33530
     64A -> 66A        0.10886
     64A -> 68A       -0.10042
     65A -> 68A       -0.12593
     65A -> 69A        0.41462
     60B -> 65B        0.45520
     61B -> 65B        0.50715
     61B -> 67B        0.12725
     62B -> 66B       -0.22911
     63B -> 66B       -0.13559
     64B -> 65B       -0.15830
     64B -> 66B       -0.12018
     64B -> 68B        0.11036

 Excited State   6:  2.216-A      3.4660 eV  357.72 nm  f=0.0058  <S**2>=0.978
     61A -> 66A        0.11366
     65A -> 67A        0.66412
     65A -> 69A       -0.15353
     60B -> 65B       -0.23773
     61B -> 65B        0.14889
     61B -> 66B       -0.10546
     62B -> 65B        0.36767
     64B -> 65B       -0.51028

 Excited State   7:  2.409-A      3.7152 eV  333.73 nm  f=0.0018  <S**2>=1.201
     64A -> 66A       -0.26158
     65A -> 67A       -0.36932
     65A -> 69A       -0.12183
     60B -> 65B       -0.45312
     61B -> 65B        0.69598
     64B -> 66B        0.16871

 Excited State   8:  2.071-A      3.7510 eV  330.53 nm  f=0.0048  <S**2>=0.822
     65A -> 67A       -0.31557
     65A -> 68A        0.88007
     62B -> 65B        0.15075
     64B -> 65B       -0.27503

 Excited State   9:  2.845-A      3.9459 eV  314.21 nm  f=0.0002  <S**2>=1.774
     63A -> 66A        0.80160
     63A -> 70A        0.14463
     64A -> 66A        0.51746
     63B -> 65B        0.16893

 Excited State  10:  2.821-A      4.0961 eV  302.69 nm  f=0.0312  <S**2>=1.739
     61A -> 67A        0.15540
     61A -> 68A       -0.16379
     62A -> 66A        0.31566
     62A -> 67A       -0.14194
     63A -> 66A        0.12494
     63A -> 67A        0.13645
     64A -> 66A       -0.12630
     64A -> 67A       -0.23649
     64A -> 68A        0.11057
     65A -> 69A        0.38156
     60B -> 65B        0.20520
     60B -> 66B        0.15550
     60B -> 67B        0.13085
     61B -> 66B        0.12326
     61B -> 67B       -0.23987
     61B -> 68B        0.13646
     62B -> 65B        0.36213
     62B -> 66B        0.12030
     63B -> 65B        0.25771
     63B -> 66B        0.12062
     64B -> 65B        0.12842
     64B -> 67B        0.20094

 Excited State  11:  2.465-A      4.2981 eV  288.46 nm  f=0.1065  <S**2>=1.269
     61A -> 66A        0.10678
     61A -> 67A       -0.20675
     63A -> 66A        0.18240
     64A -> 66A       -0.23506
     64A -> 68A       -0.17438
     65A -> 69A        0.56038
     60B -> 65B       -0.49551
     61B -> 65B       -0.30420
     61B -> 67B        0.17419
     62B -> 66B       -0.19329
     64B -> 68B        0.13549

 Excited State  12:  3.266-A      4.3132 eV  287.45 nm  f=0.0092  <S**2>=2.417
     61A -> 66A       -0.14764
     61A -> 67A       -0.21965
     61A -> 68A       -0.31659
     62A -> 66A       -0.10419
     63A -> 67A        0.16090
     63A -> 68A        0.12142
     64A -> 67A       -0.29807
     64A -> 68A       -0.23248
     65A -> 69A       -0.36308
     60B -> 68B       -0.12754
     61B -> 66B        0.10129
     61B -> 68B        0.22822
     62B -> 67B       -0.18160
     62B -> 68B       -0.21666
     64B -> 67B        0.30024
     64B -> 68B        0.37033

 Excited State  13:  2.950-A      4.4234 eV  280.29 nm  f=0.0347  <S**2>=1.926
     61A -> 66A       -0.28301
     62A -> 66A        0.39044
     63A -> 66A       -0.33298
     64A -> 66A        0.48121
     65A -> 69A        0.19206
     59B -> 65B        0.11345
     60B -> 65B       -0.34412
     61B -> 65B        0.20699
     61B -> 66B        0.21309
     64B -> 66B       -0.25515
     64B -> 67B       -0.11633

 Excited State  14:  3.254-A      4.5875 eV  270.26 nm  f=0.0296  <S**2>=2.397
     61A -> 67A       -0.25060
     62A -> 66A        0.43752
     62A -> 67A        0.13507
     62A -> 68A       -0.11082
     63A -> 66A        0.11323
     63A -> 67A       -0.10715
     63A -> 68A        0.12058
     64A -> 66A       -0.19828
     64A -> 67A        0.17246
     64A -> 68A       -0.20761
     65A -> 69A       -0.10588
     59B -> 65B       -0.13233
     60B -> 65B        0.24547
     60B -> 67B       -0.16829
     61B -> 66B        0.14527
     61B -> 67B        0.35678
     62B -> 66B        0.22939
     62B -> 68B       -0.11098
     63B -> 66B        0.19791
     64B -> 66B        0.17818
     64B -> 67B       -0.19153
     64B -> 68B        0.18909

 Excited State  15:  2.279-A      4.7231 eV  262.51 nm  f=0.0147  <S**2>=1.049
     64A -> 66A       -0.10542
     65A -> 69A       -0.12709
     65A -> 70A       -0.30443
     59B -> 65B        0.68921
     62B -> 66B       -0.19403
     63B -> 65B        0.14359
     63B -> 66B        0.47966
     64B -> 66B       -0.17697

 Excited State  16:  2.426-A      4.7288 eV  262.19 nm  f=0.0019  <S**2>=1.221
     63A -> 66A       -0.10285
     65A -> 70A        0.26787
     59B -> 65B       -0.45147
     61B -> 66B       -0.13422
     62B -> 65B       -0.11882
     62B -> 66B       -0.26513
     63B -> 65B        0.15047
     63B -> 66B        0.63607
     64B -> 66B       -0.34439

 Excited State  17:  3.346-A      4.8144 eV  257.53 nm  f=0.0000  <S**2>=2.549
     61A -> 66A        0.71659
     63A -> 66A       -0.14567
     64A -> 66A        0.25428
     64A -> 69A        0.11680
     65A -> 70A       -0.12873
     60B -> 66B        0.13393
     61B -> 66B       -0.23045
     62B -> 66B        0.31438
     64B -> 65B        0.13731
     64B -> 66B       -0.22486

 Excited State  18:  2.398-A      4.8636 eV  254.92 nm  f=0.0157  <S**2>=1.187
     60A -> 66A       -0.14522
     62A -> 66A        0.11346
     65A -> 70A        0.69964
     59B -> 65B        0.46666
     60B -> 65B        0.14644
     60B -> 66B       -0.26003
     61B -> 66B       -0.20803
     62B -> 65B       -0.11326
     62B -> 66B        0.13270
     64B -> 66B        0.13638

 Excited State  19:  2.212-A      4.9775 eV  249.09 nm  f=0.0299  <S**2>=0.973
     61A -> 66A        0.10648
     62A -> 67A        0.17400
     62A -> 68A       -0.15935
     63A -> 66A       -0.23858
     64A -> 66A        0.35327
     65A -> 70A       -0.10316
     61B -> 66B       -0.18019
     62B -> 66B       -0.34669
     63B -> 66B        0.19097
     64B -> 66B        0.68645

 Excited State  20:  3.178-A      5.0966 eV  243.27 nm  f=0.0109  <S**2>=2.274
     60A -> 66A        0.54604
     60A -> 69A        0.10957
     61A -> 66A       -0.12143
     62A -> 67A        0.24799
     62A -> 68A       -0.11352
     64A -> 68A        0.10858
     64A -> 69A        0.10707
     65A -> 70A        0.42557
     60B -> 66B        0.35137
     62B -> 66B       -0.14610
     62B -> 67B        0.21838
     63B -> 66B       -0.12640
     63B -> 67B        0.13802
     64B -> 66B       -0.11273

 Excited State  21:  2.960-A      5.1249 eV  241.93 nm  f=0.0188  <S**2>=1.941
     56A -> 66A        0.16842
     57A -> 66A        0.11408
     58A -> 66A        0.19516
     60A -> 66A        0.10450
     61A -> 66A        0.20740
     62A -> 67A       -0.26987
     62A -> 68A        0.15866
     62A -> 69A       -0.11926
     62A -> 70A       -0.13106
     64A -> 67A        0.18552
     64A -> 68A       -0.10160
     65A -> 70A        0.17655
     57B -> 65B        0.19324
     58B -> 65B        0.55292
     58B -> 66B       -0.14654
     60B -> 67B       -0.14460
     61B -> 66B        0.10849
     62B -> 67B       -0.15475
     63B -> 67B       -0.13711
     64B -> 67B       -0.11807

 Excited State  22:  2.975-A      5.1731 eV  239.67 nm  f=0.0110  <S**2>=1.963
     56A -> 66A        0.12324
     58A -> 66A        0.14964
     60A -> 66A       -0.26756
     60A -> 68A       -0.10518
     61A -> 66A       -0.26135
     62A -> 67A        0.37498
     62A -> 68A       -0.20336
     64A -> 67A       -0.17499
     65A -> 70A       -0.13039
     57B -> 65B        0.14723
     58B -> 65B        0.41670
     58B -> 66B       -0.11358
     60B -> 67B        0.12256
     61B -> 66B       -0.22682
     61B -> 67B        0.12370
     62B -> 66B        0.24637
     62B -> 67B        0.17431
     63B -> 67B        0.15813
     64B -> 67B        0.13480

 Excited State  23:  2.550-A      5.2076 eV  238.09 nm  f=0.0168  <S**2>=1.375
     60A -> 66A       -0.12421
     61A -> 66A        0.30624
     60B -> 66B       -0.33091
     60B -> 67B        0.12818
     60B -> 68B       -0.11759
     61B -> 66B        0.69360
     62B -> 67B        0.28493
     63B -> 67B        0.22687
     64B -> 67B        0.21993

 Excited State  24:  2.128-A      5.3098 eV  233.50 nm  f=0.1962  <S**2>=0.882
     60A -> 66A        0.24152
     61A -> 66A       -0.17667
     62A -> 66A       -0.51672
     64A -> 66A        0.14491
     65A -> 69A        0.20551
     58B -> 65B       -0.12437
     60B -> 65B       -0.10223
     62B -> 66B        0.55781
     63B -> 66B        0.33800
     64B -> 66B        0.19678

 Excited State  25:  3.401-A      5.4902 eV  225.83 nm  f=0.0046  <S**2>=2.641
     60A -> 67A       -0.31407
     60A -> 68A       -0.26663
     61A -> 66A       -0.11308
     61A -> 67A        0.17914
     61A -> 68A        0.16782
     61A -> 69A        0.11849
     62A -> 67A        0.11148
     62A -> 68A        0.23190
     64A -> 67A       -0.10362
     64A -> 68A       -0.17409
     64A -> 69A        0.11679
     60B -> 67B       -0.29246
     60B -> 68B       -0.28488
     61B -> 67B       -0.19162
     61B -> 68B       -0.20674
     62B -> 67B        0.24496
     62B -> 68B        0.37185
     63B -> 68B        0.20180
     64B -> 67B        0.11486
     64B -> 68B        0.23616

 Excited State  26:  2.126-A      5.5891 eV  221.83 nm  f=0.0518  <S**2>=0.880
     60A -> 66A        0.62457
     62A -> 66A        0.12155
     62A -> 67A       -0.14581
     62A -> 69A        0.10150
     64A -> 67A       -0.10876
     65A -> 70A       -0.16774
     60B -> 66B       -0.61813
     61B -> 66B       -0.20443

 Excited State  27:  2.093-A      5.6856 eV  218.07 nm  f=0.0010  <S**2>=0.845
     56B -> 65B       -0.11011
     57B -> 65B        0.87662
     57B -> 66B        0.15141
     58B -> 65B       -0.38828
     58B -> 66B       -0.11049

 Excited State  28:  3.274-A      5.7413 eV  215.95 nm  f=0.0007  <S**2>=2.430
     63A -> 67A        0.29352
     63A -> 68A       -0.11103
     64A -> 67A        0.15871
     56B -> 65B        0.10453
     62B -> 67B       -0.33987
     63B -> 67B        0.75640
     63B -> 68B       -0.16577
     64B -> 67B       -0.31536
     64B -> 68B        0.10482

 Excited State  29:  2.315-A      5.7771 eV  214.61 nm  f=0.0064  <S**2>=1.090
     63A -> 67A        0.71356
     63A -> 68A       -0.26599
     64A -> 67A        0.49063
     64A -> 68A       -0.17613
     62B -> 67B        0.15542
     63B -> 67B       -0.26926
     64B -> 67B        0.17607

 Excited State  30:  2.347-A      5.9046 eV  209.98 nm  f=0.0007  <S**2>=1.127
     55B -> 65B        0.11060
     56B -> 65B        0.89294
     56B -> 66B       -0.20247
     57B -> 65B        0.21249
     58B -> 65B        0.18740

 Excited State  31:  2.548-A      5.9456 eV  208.53 nm  f=0.0182  <S**2>=1.373
     56A -> 66A       -0.10530
     58A -> 66A       -0.13000
     60A -> 69A        0.24709
     62A -> 67A       -0.13931
     62A -> 70A        0.13803
     63A -> 67A       -0.10495
     64A -> 67A        0.14506
     64A -> 69A        0.16860
     53B -> 65B       -0.26188
     54B -> 65B        0.15955
     55B -> 65B        0.53553
     56B -> 65B       -0.21423
     57B -> 65B        0.16332
     58B -> 65B        0.23147
     58B -> 66B        0.14662
     60B -> 66B       -0.14091
     60B -> 69B       -0.18803
     61B -> 66B       -0.10077
     61B -> 69B       -0.11899
     62B -> 70B       -0.12097
     63B -> 67B        0.10947
     64B -> 67B        0.18773

 Excited State  32:  2.085-A      5.9749 eV  207.51 nm  f=0.0017  <S**2>=0.837
     65A -> 71A        0.92468
     65A -> 72A        0.22398
     65A -> 73A        0.14715

 Excited State  33:  2.480-A      5.9830 eV  207.23 nm  f=0.0740  <S**2>=1.288
     60A -> 67A        0.12462
     61A -> 66A       -0.17501
     61A -> 67A       -0.12849
     61A -> 68A       -0.18813
     61A -> 69A        0.23541
     61A -> 70A       -0.14254
     62A -> 67A       -0.30271
     62A -> 68A       -0.12795
     62A -> 69A        0.14876
     63A -> 67A       -0.24946
     63A -> 69A       -0.19292
     64A -> 67A        0.33368
     64A -> 68A        0.12078
     64A -> 69A        0.38647
     55B -> 65B       -0.21271
     58B -> 65B       -0.11705
     60B -> 66B        0.10085
     61B -> 69B        0.10699
     63B -> 67B        0.21427
     64B -> 67B        0.30949

 Excited State  34:  2.811-A      6.0363 eV  205.40 nm  f=0.0138  <S**2>=1.726
     60A -> 66A        0.13690
     60A -> 69A       -0.20214
     60A -> 70A        0.11611
     62A -> 67A        0.12369
     62A -> 69A        0.22051
     63A -> 69A        0.11054
     64A -> 67A        0.12354
     64A -> 69A       -0.33094
     65A -> 71A        0.19679
     53B -> 65B        0.12849
     54B -> 65B        0.11779
     55B -> 65B        0.21185
     56B -> 65B       -0.12079
     58B -> 65B        0.10528
     60B -> 66B        0.17337
     60B -> 70B       -0.11057
     61B -> 67B        0.17207
     62B -> 67B       -0.35722
     62B -> 69B       -0.17382
     64B -> 67B        0.43878
     64B -> 69B       -0.17719

 Excited State  35:  2.590-A      6.0811 eV  203.88 nm  f=0.0342  <S**2>=1.427
     60A -> 69A       -0.14102
     61A -> 69A        0.23352
     62A -> 68A       -0.10202
     62A -> 69A        0.14433
     65A -> 71A        0.10206
     53B -> 65B        0.24449
     54B -> 65B        0.25955
     55B -> 65B        0.41713
     59B -> 66B       -0.10019
     60B -> 66B        0.15849
     61B -> 67B       -0.21226
     61B -> 68B        0.10622
     62B -> 67B        0.29716
     62B -> 68B       -0.11349
     62B -> 69B       -0.19908
     64B -> 67B       -0.34213
     64B -> 68B        0.22461

 Excited State  36:  2.878-A      6.1200 eV  202.59 nm  f=0.0003  <S**2>=1.821
     59A -> 66A        0.12010
     62A -> 69A       -0.27735
     62A -> 70A       -0.20081
     63A -> 69A       -0.15387
     53B -> 65B        0.18272
     54B -> 65B       -0.26375
     54B -> 66B        0.13219
     55B -> 65B        0.51132
     56B -> 65B        0.12610
     57B -> 65B       -0.12698
     58B -> 65B       -0.21696
     59B -> 66B       -0.10139
     60B -> 66B       -0.14176
     60B -> 69B        0.10953
     61B -> 67B        0.11294
     61B -> 69B        0.11741
     62B -> 67B       -0.13106
     62B -> 69B        0.13036
     63B -> 69B        0.31301
     63B -> 70B        0.11643
     64B -> 69B        0.13727

 The electronic state is 2-A.
 Alpha  occ. eigenvalues --  -19.17587 -19.13134 -10.27493 -10.25930 -10.19972
 Alpha  occ. eigenvalues --  -10.19892 -10.19805 -10.19800 -10.19462 -10.19455
 Alpha  occ. eigenvalues --  -10.19396 -10.19373 -10.19236 -10.19104 -10.19061
 Alpha  occ. eigenvalues --  -10.19038 -10.18308 -10.17954  -1.06220  -1.02555
 Alpha  occ. eigenvalues --   -0.85991  -0.85624  -0.78426  -0.76865  -0.75014
 Alpha  occ. eigenvalues --   -0.74781  -0.72910  -0.72367  -0.64944  -0.62768
 Alpha  occ. eigenvalues --   -0.60673  -0.60274  -0.57560  -0.55040  -0.52213
 Alpha  occ. eigenvalues --   -0.50992  -0.50339  -0.47220  -0.46354  -0.46021
 Alpha  occ. eigenvalues --   -0.45692  -0.44496  -0.44354  -0.42990  -0.42535
 Alpha  occ. eigenvalues --   -0.42216  -0.41660  -0.41013  -0.39007  -0.38645
 Alpha  occ. eigenvalues --   -0.38279  -0.37348  -0.37009  -0.35821  -0.35438
 Alpha  occ. eigenvalues --   -0.34429  -0.34160  -0.34030  -0.31963  -0.27613
 Alpha  occ. eigenvalues --   -0.26142  -0.25587  -0.25314  -0.24999  -0.16714
 Alpha virt. eigenvalues --   -0.05201  -0.01030  -0.00035   0.01400   0.04349
 Alpha virt. eigenvalues --    0.08691   0.09850   0.11772   0.12413   0.13395
 Alpha virt. eigenvalues --    0.13658   0.14717   0.15118   0.15234   0.16114

  Beta  occ. eigenvalues --  -19.17348 -19.12935 -10.27452 -10.25075 -10.20148
  Beta  occ. eigenvalues --  -10.19909 -10.19773 -10.19759 -10.19480 -10.19464
  Beta  occ. eigenvalues --  -10.19368 -10.19202 -10.19181 -10.19128 -10.18963
  Beta  occ. eigenvalues --  -10.18853 -10.18343 -10.17952  -1.05545  -1.02174
  Beta  occ. eigenvalues --   -0.85903  -0.85398  -0.77798  -0.76711  -0.74974
  Beta  occ. eigenvalues --   -0.74556  -0.72696  -0.72173  -0.64192  -0.62646
  Beta  occ. eigenvalues --   -0.60620  -0.60148  -0.57272  -0.54947  -0.51976
  Beta  occ. eigenvalues --   -0.50829  -0.49452  -0.46460  -0.46205  -0.45679
  Beta  occ. eigenvalues --   -0.45576  -0.44427  -0.44301  -0.42805  -0.42459
  Beta  occ. eigenvalues --   -0.42098  -0.41364  -0.40781  -0.38620  -0.38423
  Beta  occ. eigenvalues --   -0.37907  -0.37117  -0.36484  -0.35618  -0.35283
  Beta  occ. eigenvalues --   -0.34300  -0.33972  -0.33482  -0.31217  -0.26655
  Beta  occ. eigenvalues --   -0.25672  -0.25135  -0.25058  -0.24652
  Beta virt. eigenvalues --   -0.09130  -0.03625  -0.00830   0.00419   0.02671
  Beta virt. eigenvalues --    0.05839   0.08833   0.09916   0.11908   0.12468
  Beta virt. eigenvalues --    0.13460   0.13806   0.14870   0.15334   0.15570

 Mulliken charges and spin densities:
               1          2
     1  C    0.354879   0.044015
     2  C    0.223709   0.552371
     3  O   -0.569522   0.075407
     4  C   -0.368556  -0.002373
     5  H    0.139796   0.003019
     6  H    0.131198   0.000822
     7  H    0.125610   0.000958
     8  C   -0.355720  -0.036563
     9  H    0.131411   0.002251
    10  H    0.128729   0.011354
    11  H    0.132983   0.031650
    12  C    0.076791  -0.021358
    13  C   -0.115183   0.032492
    14  C   -0.118003   0.027480
    15  C   -0.101431  -0.015976
    16  H    0.108417  -0.001527
    17  C   -0.108125  -0.016421
    18  H    0.107889  -0.001144
    19  C   -0.091417   0.034272
    20  H    0.106392   0.000576
    21  H    0.107408   0.000582
    22  H    0.108242  -0.001539
    23  C    0.101604  -0.147120
    24  C   -0.128507   0.184077
    25  C   -0.128911   0.179691
    26  C   -0.100673  -0.097487
    27  H    0.107967  -0.007985
    28  C   -0.108438  -0.097684
    29  H    0.100751  -0.007777
    30  C   -0.101955   0.200244
    31  H    0.101940   0.003490
    32  H    0.102599   0.003465
    33  H    0.101617  -0.009155
    34  O   -0.544944   0.066471
    35  H    0.341452   0.009425
 Sum of Mulliken charges =  -0.00000   1.00000

 Dipole moment (field-independent basis, Debye):
    X=             -0.2259    Y=              3.5190    Z=              0.0116  Tot=              3.5262
 Quadrupole moment (field-independent basis, Debye-Ang):
   XX=           -102.6463   YY=           -103.3802   ZZ=           -101.4066
   XY=             -2.5277   XZ=             -7.8616   YZ=             -0.3845

 Normal termination of Gaussian 16 at Sat May 25 04:49:47 2019.
