 Gaussian 16, Revision B.01,
 Gaussian 16:  ES64L-G16RevB.01 20-Dec-2017

 ----------------------------------------------------------------------
 #p td=(50-50,nstates=36) ub3lyp/6-31g(d,p) scrf=(iefpcm,solvent=aceton
 itrile) guess=(mix,always) empiricaldispersion=gd3
 ----------------------------------------------------------------------

 -------------------
 Title Card Required
 -------------------
 Symbolic Z-matrix:
 Charge =  0 Multiplicity = 2

                         Standard orientation:
 ---------------------------------------------------------------------
 Center     Atomic      Atomic             Coordinates (Angstroms)
 Number     Number       Type             X           Y           Z
 ---------------------------------------------------------------------
      1          6           0        0.670610   -1.348514    0.674527
      2          6           0       -0.689975   -1.293655   -0.650539
      3          8           0        1.152065   -2.516020    0.372418
      4          6           0       -0.115450   -1.316882    1.997193
      5          1           0        0.609935   -1.419752    2.810069
      6          1           0       -0.680594   -0.398144    2.149820
      7          1           0       -0.800453   -2.164157    2.027413
      8          6           0        0.056060   -1.341872   -1.977873
      9          1           0        0.714023   -0.486885   -2.125231
     10          1           0        0.659780   -2.248771   -2.021929
     11          1           0       -0.684296   -1.360094   -2.783789
     12          6           0        1.580209   -0.156423    0.429830
     13          6           0        2.762215   -0.347913   -0.302351
     14          6           0        1.296979    1.127835    0.919084
     15          6           0        3.632329    0.712329   -0.548024
     16          1           0        2.984223   -1.344077   -0.668297
     17          6           0        2.168313    2.191233    0.675963
     18          1           0        0.389826    1.311197    1.482364
     19          6           0        3.337150    1.989042   -0.060325
     20          1           0        4.542608    0.543516   -1.116197
     21          1           0        1.930447    3.178359    1.061342
     22          1           0        4.013533    2.817213   -0.250226
     23          6           0       -1.557793   -0.111367   -0.416577
     24          6           0       -2.722256   -0.229241    0.367989
     25          6           0       -1.239952    1.147621   -0.960979
     26          6           0       -3.542552    0.872644    0.592963
     27          1           0       -2.975666   -1.193785    0.789938
     28          6           0       -2.060874    2.248766   -0.731081
     29          1           0       -0.344447    1.273585   -1.556488
     30          6           0       -3.214437    2.117227    0.046784
     31          1           0       -4.438887    0.761595    1.195499
     32          1           0       -1.798554    3.211356   -1.158949
     33          1           0       -3.852345    2.977353    0.225945
     34          8           0       -1.371091   -2.468624   -0.389388
     35          1           0       -0.680388   -3.146334   -0.265037
 ---------------------------------------------------------------------

 SCF Done:  E(UB3LYP) =  -770.397021131     A.U. after   20 cycles

 Excitation energies and oscillator strengths:

 Excited State   1:  2.021-A      1.0999 eV 1127.26 nm  f=0.0016  <S**2>=0.771
     60B -> 65B        0.13275
     62B -> 65B        0.13163
     63B -> 65B       -0.38515
     64B -> 65B        0.88602
 This state for optimization and/or second-order correction.
 Total Energy, E(TD-HF/TD-DFT) =  -770.356601734
 Copying the excited state density for this state as the 1-particle RhoCI density.

 Excited State   2:  2.039-A      2.2253 eV  557.16 nm  f=0.0129  <S**2>=0.789
     63B -> 65B        0.90497
     64B -> 65B        0.39074

 Excited State   3:  2.044-A      2.4208 eV  512.16 nm  f=0.0063  <S**2>=0.795
     62B -> 65B        0.97675
     64B -> 65B       -0.15443

 Excited State   4:  2.085-A      2.6823 eV  462.24 nm  f=0.0287  <S**2>=0.837
     60B -> 65B       -0.11325
     61B -> 65B        0.97156

 Excited State   5:  2.112-A      2.8620 eV  433.21 nm  f=0.0557  <S**2>=0.865
     65A -> 66A        0.14929
     60B -> 65B        0.93206
     61B -> 65B        0.15084
     62B -> 65B       -0.12454

 Excited State   6:  2.086-A      3.3470 eV  370.43 nm  f=0.0123  <S**2>=0.838
     65A -> 66A        0.13188
     59B -> 65B        0.95605
     60B -> 65B       -0.11514

 Excited State   7:  3.200-A      3.7375 eV  331.73 nm  f=0.0230  <S**2>=2.309
     61A -> 69A        0.13251
     62A -> 66A       -0.14100
     62A -> 68A       -0.16777
     63A -> 67A       -0.21739
     63A -> 69A        0.25100
     64A -> 66A       -0.18484
     64A -> 67A        0.12846
     64A -> 68A       -0.22083
     64A -> 69A       -0.11024
     65A -> 66A        0.39647
     65A -> 68A        0.18261
     58B -> 65B        0.25395
     59B -> 65B       -0.19136
     60B -> 69B        0.11109
     62B -> 67B        0.25607
     62B -> 69B       -0.24129
     63B -> 66B        0.28762
     63B -> 68B        0.23060
     64B -> 66B        0.14284
     64B -> 68B        0.15515

 Excited State   8:  3.180-A      3.9338 eV  315.18 nm  f=0.0726  <S**2>=2.278
     60A -> 66A       -0.14560
     60A -> 68A        0.15332
     61A -> 67A        0.36934
     61A -> 69A        0.14761
     62A -> 66A        0.12310
     63A -> 69A       -0.16155
     64A -> 66A        0.19807
     64A -> 67A        0.14408
     64A -> 69A        0.12225
     65A -> 66A        0.36766
     65A -> 68A       -0.25229
     60B -> 65B       -0.23831
     60B -> 66B        0.21243
     60B -> 67B        0.12829
     60B -> 68B       -0.15414
     60B -> 69B        0.10690
     61B -> 65B        0.10530
     61B -> 66B       -0.14680
     61B -> 67B        0.31523
     61B -> 68B        0.15869
     61B -> 69B        0.10919
     62B -> 67B        0.10458
     62B -> 69B        0.19580
     64B -> 66B       -0.19133

 Excited State   9:  2.186-A      3.9884 eV  310.86 nm  f=0.0057  <S**2>=0.944
     63A -> 69A       -0.10461
     58B -> 65B        0.91961
     62B -> 67B       -0.10908

 Excited State  10:  2.806-A      4.4488 eV  278.69 nm  f=0.1123  <S**2>=1.718
     61A -> 67A       -0.21822
     61A -> 69A       -0.20503
     63A -> 67A        0.24015
     63A -> 69A       -0.10934
     64A -> 67A       -0.19885
     65A -> 66A        0.69750
     57B -> 65B       -0.15831
     58B -> 65B       -0.12793
     60B -> 69B       -0.10267
     61B -> 67B       -0.19586
     61B -> 69B       -0.18401
     62B -> 67B       -0.32938

 Excited State  11:  2.650-A      4.4937 eV  275.91 nm  f=0.0031  <S**2>=1.505
     60A -> 67A       -0.11690
     62A -> 69A        0.10611
     64A -> 69A        0.12505
     65A -> 67A        0.85884
     60B -> 67B        0.14848
     60B -> 69B        0.10336
     61B -> 68B       -0.12767
     62B -> 66B        0.21873
     63B -> 67B        0.11063
     63B -> 69B       -0.11683
     64B -> 69B       -0.10977

 Excited State  12:  2.928-A      4.6474 eV  266.78 nm  f=0.0025  <S**2>=1.894
     61A -> 66A       -0.11483
     62A -> 67A       -0.13592
     63A -> 66A       -0.22911
     63A -> 68A       -0.17518
     63A -> 69A        0.10062
     64A -> 66A        0.16442
     64A -> 67A       -0.19797
     64A -> 68A        0.11459
     65A -> 67A       -0.15251
     65A -> 69A       -0.39618
     50B -> 65B        0.12899
     55B -> 65B       -0.24846
     57B -> 65B        0.41877
     61B -> 66B       -0.16159
     62B -> 66B        0.21898
     62B -> 68B        0.14628
     62B -> 69B       -0.16225
     63B -> 67B        0.21609
     63B -> 69B       -0.17226
     64B -> 67B        0.19071

 Excited State  13:  2.536-A      4.6550 eV  266.35 nm  f=0.0013  <S**2>=1.358
     62A -> 67A        0.10303
     63A -> 67A        0.12938
     63A -> 69A       -0.16667
     64A -> 66A       -0.17288
     65A -> 67A        0.11912
     65A -> 68A        0.14628
     65A -> 69A        0.21124
     48B -> 65B        0.13735
     50B -> 65B        0.18579
     55B -> 65B       -0.39751
     56B -> 65B        0.17773
     57B -> 65B        0.60409
     62B -> 66B       -0.11540
     62B -> 67B       -0.10338
     62B -> 69B        0.19410
     63B -> 67B       -0.12175
     63B -> 68B        0.11512

 Excited State  14:  3.210-A      4.6702 eV  265.48 nm  f=0.0174  <S**2>=2.326
     61A -> 67A        0.28513
     62A -> 66A       -0.14056
     63A -> 66A       -0.18992
     63A -> 68A       -0.14994
     63A -> 69A       -0.25436
     64A -> 66A       -0.14309
     64A -> 69A        0.24279
     65A -> 66A       -0.10652
     65A -> 68A        0.38311
     65A -> 69A       -0.15189
     52B -> 65B        0.10883
     55B -> 65B        0.11889
     57B -> 65B       -0.17492
     60B -> 66B       -0.10233
     60B -> 67B        0.13393
     61B -> 67B        0.28302
     62B -> 66B        0.10553
     62B -> 67B       -0.11944
     62B -> 68B        0.25172
     62B -> 69B        0.24111
     63B -> 66B        0.21165
     63B -> 69B       -0.15835
     64B -> 66B        0.21991
     64B -> 69B       -0.10746

 Excited State  15:  3.092-A      4.8546 eV  255.39 nm  f=0.0014  <S**2>=2.140
     61A -> 66A        0.21996
     61A -> 68A       -0.22685
     63A -> 66A       -0.36797
     64A -> 66A        0.41725
     64A -> 67A        0.13304
     65A -> 67A       -0.27348
     65A -> 68A        0.25503
     65A -> 69A        0.32017
     55B -> 65B       -0.20754
     57B -> 65B       -0.11053
     61B -> 66B        0.18525
     61B -> 68B       -0.16998
     62B -> 66B        0.29944
     64B -> 66B       -0.12197
     64B -> 67B       -0.11055

 Excited State  16:  2.145-A      4.8818 eV  253.97 nm  f=0.0052  <S**2>=0.900
     63A -> 66A       -0.12163
     65A -> 69A        0.11375
     51B -> 65B        0.13327
     55B -> 65B        0.70549
     56B -> 65B       -0.26930
     57B -> 65B        0.54340

 Excited State  17:  2.793-A      4.9079 eV  252.62 nm  f=0.0423  <S**2>=1.701
     60A -> 66A        0.23378
     62A -> 68A        0.16217
     63A -> 66A        0.21513
     63A -> 67A       -0.14652
     63A -> 68A        0.15349
     64A -> 68A        0.26362
     65A -> 66A        0.28249
     65A -> 68A        0.45171
     65A -> 69A       -0.14625
     54B -> 65B       -0.21439
     56B -> 65B       -0.20888
     57B -> 65B        0.10910
     60B -> 66B       -0.22265
     60B -> 68B        0.12785
     61B -> 66B        0.11086
     61B -> 69B        0.10027
     62B -> 66B       -0.18289
     62B -> 67B        0.14283
     63B -> 66B       -0.16586
     63B -> 68B       -0.15501
     64B -> 68B       -0.19769

 Excited State  18:  2.082-A      4.9705 eV  249.44 nm  f=0.0011  <S**2>=0.834
     65A -> 68A        0.12716
     55B -> 65B        0.35437
     56B -> 65B        0.89441

 Excited State  19:  3.154-A      5.0225 eV  246.86 nm  f=0.0018  <S**2>=2.237
     60A -> 66A       -0.14521
     61A -> 66A        0.46587
     61A -> 68A       -0.10814
     63A -> 66A        0.16153
     63A -> 68A        0.30725
     64A -> 66A        0.15901
     64A -> 67A       -0.14304
     64A -> 68A       -0.31393
     64A -> 69A        0.10004
     65A -> 69A       -0.46142
     60B -> 66B        0.19690
     61B -> 66B        0.24682
     62B -> 68B       -0.22344
     62B -> 69B        0.10523
     64B -> 66B       -0.11213

 Excited State  20:  3.058-A      5.0690 eV  244.60 nm  f=0.0160  <S**2>=2.087
     60A -> 66A       -0.17241
     60A -> 68A        0.11480
     61A -> 66A       -0.29543
     61A -> 68A        0.17917
     62A -> 68A       -0.10247
     63A -> 66A        0.27492
     64A -> 66A        0.34856
     65A -> 66A       -0.17629
     65A -> 68A        0.45791
     52B -> 65B       -0.10746
     60B -> 66B        0.10740
     60B -> 68B       -0.10544
     61B -> 66B       -0.23349
     61B -> 68B        0.14773
     63B -> 66B        0.24479
     64B -> 66B       -0.35663

 Excited State  21:  2.246-A      5.1468 eV  240.90 nm  f=0.0004  <S**2>=1.012
     64A -> 68A        0.11308
     49B -> 65B       -0.11451
     51B -> 65B        0.15859
     54B -> 65B        0.87391
     60B -> 66B       -0.13289
     61B -> 66B        0.10008
     63B -> 66B        0.10690
     64B -> 66B       -0.17378

 Excited State  22:  2.847-A      5.1999 eV  238.44 nm  f=0.0023  <S**2>=1.776
     60A -> 66A       -0.12165
     61A -> 66A       -0.11162
     62A -> 66A        0.23574
     64A -> 66A        0.16786
     65A -> 68A        0.31450
     54B -> 65B        0.27467
     60B -> 66B        0.17835
     61B -> 66B       -0.11712
     63B -> 66B       -0.40097
     63B -> 68B       -0.12085
     64B -> 66B        0.62321
     64B -> 68B        0.13759
     64B -> 69B       -0.10002

 Excited State  23:  2.673-A      5.2259 eV  237.25 nm  f=0.0017  <S**2>=1.537
     62A -> 66A       -0.11028
     64A -> 69A        0.12304
     65A -> 67A       -0.11077
     65A -> 69A        0.41840
     60B -> 66B        0.11121
     61B -> 66B        0.13111
     62B -> 66B       -0.40596
     62B -> 68B       -0.23633
     63B -> 66B        0.13605
     63B -> 67B        0.40613
     63B -> 69B       -0.32173
     64B -> 67B        0.30412
     64B -> 69B       -0.25207

 Excited State  24:  2.399-A      5.2969 eV  234.07 nm  f=0.0184  <S**2>=1.188
     62A -> 66A        0.63623
     62A -> 68A        0.12622
     63A -> 66A       -0.37542
     64A -> 66A       -0.41723
     65A -> 68A        0.22931
     64B -> 66B       -0.35767

 Excited State  25:  2.851-A      5.3971 eV  229.73 nm  f=0.0019  <S**2>=1.782
     62A -> 67A       -0.10141
     63A -> 66A        0.20663
     63A -> 67A       -0.12774
     64A -> 66A       -0.10200
     64A -> 67A       -0.28162
     65A -> 69A        0.30666
     60B -> 67B       -0.30046
     60B -> 69B       -0.11933
     61B -> 66B        0.23481
     61B -> 67B        0.24135
     61B -> 69B        0.18363
     62B -> 66B        0.34722
     63B -> 66B       -0.18326
     63B -> 67B       -0.14539
     64B -> 67B        0.46094

 Excited State  26:  2.372-A      5.4482 eV  227.57 nm  f=0.0037  <S**2>=1.157
     60A -> 67A        0.13324
     61A -> 66A       -0.11358
     62A -> 66A       -0.11365
     62A -> 67A        0.11575
     62A -> 69A       -0.17129
     63A -> 66A       -0.24541
     63A -> 67A        0.16598
     63A -> 68A       -0.10721
     63A -> 69A       -0.15151
     64A -> 66A        0.11417
     64A -> 67A        0.38758
     64A -> 69A       -0.38624
     65A -> 67A        0.15712
     65A -> 69A       -0.29209
     60B -> 67B       -0.15034
     61B -> 66B        0.19342
     61B -> 67B        0.11186
     62B -> 66B       -0.16671
     62B -> 68B       -0.17485
     64B -> 67B        0.42011

 Excited State  27:  2.065-A      5.5060 eV  225.18 nm  f=0.0086  <S**2>=0.817
     62A -> 66A       -0.10489
     47B -> 65B        0.11654
     48B -> 65B        0.28481
     50B -> 65B        0.58980
     51B -> 65B        0.44340
     52B -> 65B       -0.42976
     54B -> 65B       -0.15177
     55B -> 65B        0.11057
     57B -> 65B       -0.20332
     58B -> 65B       -0.13881

 Excited State  28:  2.752-A      5.5599 eV  223.00 nm  f=0.0060  <S**2>=1.644
     60A -> 67A       -0.12136
     62A -> 66A        0.10944
     64A -> 69A        0.15057
     53B -> 65B        0.45336
     60B -> 67B        0.24400
     61B -> 66B       -0.13773
     61B -> 67B       -0.22553
     63B -> 66B        0.14606
     63B -> 67B       -0.38067
     63B -> 69B        0.15420
     64B -> 67B        0.45819
     64B -> 68B       -0.17830
     64B -> 69B       -0.29626

 Excited State  29:  2.456-A      5.5631 eV  222.87 nm  f=0.0123  <S**2>=1.257
     60A -> 67A        0.21601
     61A -> 67A        0.16525
     62A -> 69A       -0.11253
     63A -> 66A       -0.17363
     64A -> 66A        0.18088
     64A -> 67A       -0.29873
     64A -> 69A       -0.22293
     65A -> 67A        0.17446
     53B -> 65B        0.66860
     60B -> 67B       -0.11685
     63B -> 66B        0.21521
     64B -> 67B       -0.15595
     64B -> 69B        0.13992

 Excited State  30:  2.419-A      5.5836 eV  222.05 nm  f=0.0197  <S**2>=1.213
     60A -> 67A       -0.19425
     61A -> 66A       -0.20833
     61A -> 67A       -0.16437
     62A -> 69A        0.11121
     63A -> 66A        0.20823
     63A -> 67A        0.10005
     63A -> 68A       -0.10728
     64A -> 66A       -0.14383
     64A -> 67A        0.39084
     64A -> 69A        0.16345
     65A -> 67A       -0.15743
     53B -> 65B        0.45170
     61B -> 66B        0.18022
     62B -> 66B        0.20471
     62B -> 67B       -0.15570
     62B -> 68B       -0.11641
     63B -> 67B        0.31613
     63B -> 69B       -0.12675
     64B -> 67B       -0.13839
     64B -> 68B        0.19151

 Excited State  31:  2.429-A      5.6629 eV  218.94 nm  f=0.0117  <S**2>=1.224
     64A -> 68A       -0.16047
     50B -> 65B        0.24520
     51B -> 65B        0.24216
     52B -> 65B        0.69527
     61B -> 66B       -0.17504
     61B -> 67B       -0.14243
     62B -> 66B       -0.13331
     63B -> 66B       -0.31578
     63B -> 68B        0.16102
     64B -> 66B       -0.17941
     64B -> 68B        0.19873
     64B -> 69B       -0.11933

 Excited State  32:  2.381-A      5.7047 eV  217.34 nm  f=0.0293  <S**2>=1.168
     62A -> 66A        0.30944
     63A -> 66A        0.12620
     63A -> 67A        0.10714
     64A -> 66A        0.11546
     64A -> 67A        0.12564
     50B -> 65B        0.16174
     51B -> 65B        0.28157
     52B -> 65B        0.39637
     53B -> 65B       -0.14603
     60B -> 66B        0.11877
     62B -> 66B        0.22097
     62B -> 68B       -0.16412
     63B -> 66B        0.42134
     63B -> 67B        0.11873
     64B -> 66B        0.23228
     64B -> 68B       -0.30666
     64B -> 69B        0.24753

 Excited State  33:  2.790-A      5.7297 eV  216.39 nm  f=0.0060  <S**2>=1.697
     62A -> 66A        0.15882
     62A -> 68A        0.13867
     63A -> 66A        0.11490
     63A -> 68A       -0.11890
     48B -> 65B        0.10587
     50B -> 65B        0.17993
     51B -> 65B       -0.25149
     53B -> 65B       -0.17958
     63B -> 66B        0.28238
     63B -> 68B       -0.39751
     63B -> 69B        0.17859
     64B -> 68B        0.60840
     64B -> 69B       -0.19021

 Excited State  34:  2.267-A      5.7691 eV  214.91 nm  f=0.0056  <S**2>=1.035
     63A -> 68A       -0.11616
     47B -> 65B       -0.10404
     48B -> 65B       -0.26857
     49B -> 65B        0.30787
     50B -> 65B       -0.35612
     51B -> 65B        0.65219
     53B -> 65B        0.12312
     55B -> 65B       -0.22237
     63B -> 68B       -0.18305
     64B -> 68B        0.26624
     64B -> 69B       -0.12770

 Excited State  35:  2.689-A      5.8237 eV  212.90 nm  f=0.0038  <S**2>=1.558
     60A -> 66A       -0.13184
     61A -> 67A       -0.10021
     62A -> 66A       -0.16867
     62A -> 67A        0.16769
     62A -> 68A       -0.19335
     63A -> 66A       -0.25259
     63A -> 68A        0.53204
     64A -> 66A       -0.13764
     64A -> 67A       -0.13299
     64A -> 68A        0.51823
     50B -> 65B       -0.10017
     52B -> 65B        0.13217
     60B -> 66B        0.17395
     62B -> 68B       -0.14844
     63B -> 68B       -0.13621
     64B -> 68B        0.17472

 Excited State  36:  2.645-A      5.8349 eV  212.49 nm  f=0.0066  <S**2>=1.500
     61A -> 66A       -0.27679
     61A -> 67A       -0.12380
     62A -> 67A        0.53125
     62A -> 68A        0.15171
     62A -> 69A       -0.21779
     63A -> 66A       -0.10439
     63A -> 67A       -0.46030
     64A -> 66A        0.13231
     64A -> 67A       -0.12935
     64A -> 68A       -0.27933
     64A -> 69A        0.23582
     61B -> 66B        0.18414
     62B -> 67B       -0.16440
     63B -> 68B       -0.10656

 The electronic state is 2-A.
 Alpha  occ. eigenvalues --  -19.17219 -19.13395 -10.28264 -10.26107 -10.20680
 Alpha  occ. eigenvalues --  -10.20019 -10.20014 -10.19777 -10.19640 -10.19608
 Alpha  occ. eigenvalues --  -10.19426 -10.19227 -10.19164 -10.19082 -10.19061
 Alpha  occ. eigenvalues --  -10.18741 -10.18323 -10.17692  -1.06231  -1.00918
 Alpha  occ. eigenvalues --   -0.86519  -0.85351  -0.79149  -0.76108  -0.75341
 Alpha  occ. eigenvalues --   -0.74506  -0.73116  -0.71938  -0.65062  -0.62168
 Alpha  occ. eigenvalues --   -0.61056  -0.60065  -0.58082  -0.55390  -0.52358
 Alpha  occ. eigenvalues --   -0.52301  -0.49985  -0.47956  -0.46342  -0.45409
 Alpha  occ. eigenvalues --   -0.45191  -0.44928  -0.44019  -0.43309  -0.42626
 Alpha  occ. eigenvalues --   -0.41965  -0.40950  -0.40535  -0.38710  -0.38447
 Alpha  occ. eigenvalues --   -0.38082  -0.37327  -0.36694  -0.36173  -0.34853
 Alpha  occ. eigenvalues --   -0.34741  -0.34266  -0.33576  -0.31126  -0.28076
 Alpha  occ. eigenvalues --   -0.26256  -0.25842  -0.25000  -0.24594  -0.21473
 Alpha virt. eigenvalues --   -0.02359  -0.01317  -0.00467   0.00126   0.08704
 Alpha virt. eigenvalues --    0.08915   0.09811   0.11458   0.12600   0.13440
 Alpha virt. eigenvalues --    0.13753   0.14403   0.14571   0.15501   0.16207

  Beta  occ. eigenvalues --  -19.17064 -19.12254 -10.27700 -10.26103 -10.20741
  Beta  occ. eigenvalues --  -10.19914 -10.19900 -10.19694 -10.19688 -10.19637
  Beta  occ. eigenvalues --  -10.19424 -10.19205 -10.19148 -10.19087 -10.19068
  Beta  occ. eigenvalues --  -10.18725 -10.18312 -10.17624  -1.05660  -0.98855
  Beta  occ. eigenvalues --   -0.86352  -0.85271  -0.78659  -0.75828  -0.75234
  Beta  occ. eigenvalues --   -0.74470  -0.72873  -0.71624  -0.64614  -0.61923
  Beta  occ. eigenvalues --   -0.60970  -0.60028  -0.57801  -0.54810  -0.52244
  Beta  occ. eigenvalues --   -0.51443  -0.49503  -0.47366  -0.46125  -0.45270
  Beta  occ. eigenvalues --   -0.45014  -0.44670  -0.43939  -0.43114  -0.42558
  Beta  occ. eigenvalues --   -0.41941  -0.40559  -0.40012  -0.38606  -0.38063
  Beta  occ. eigenvalues --   -0.37863  -0.36895  -0.36523  -0.35687  -0.34695
  Beta  occ. eigenvalues --   -0.34607  -0.33783  -0.32334  -0.29600  -0.26650
  Beta  occ. eigenvalues --   -0.25923  -0.24799  -0.24471  -0.23989
  Beta virt. eigenvalues --   -0.13003  -0.01670  -0.01108   0.00117   0.00318
  Beta virt. eigenvalues --    0.08808   0.09843   0.10375   0.11659   0.12662
  Beta virt. eigenvalues --    0.13515   0.13890   0.14591   0.14795   0.15634

 Mulliken charges and spin densities:
               1          2
     1  C    0.265021   0.000570
     2  C    0.213225   0.310163
     3  O   -0.547076   0.452083
     4  C   -0.333125   0.032297
     5  H    0.123016   0.005189
     6  H    0.117627  -0.002842
     7  H    0.117709  -0.001370
     8  C   -0.324526   0.004510
     9  H    0.129696   0.000088
    10  H    0.126502  -0.000165
    11  H    0.128394   0.010520
    12  C    0.091603  -0.006126
    13  C   -0.123062   0.017652
    14  C   -0.126436   0.016761
    15  C   -0.102504  -0.007765
    16  H    0.102374  -0.001414
    17  C   -0.110303  -0.009247
    18  H    0.102177  -0.000503
    19  C   -0.096729   0.019278
    20  H    0.101276   0.000326
    21  H    0.102435   0.000392
    22  H    0.102361  -0.000819
    23  C    0.099303  -0.059337
    24  C   -0.107388   0.085234
    25  C   -0.110605   0.081644
    26  C   -0.102856  -0.045044
    27  H    0.117490  -0.003569
    28  C   -0.108793  -0.044847
    29  H    0.110488  -0.003352
    30  C   -0.088423   0.092946
    31  H    0.109209   0.001697
    32  H    0.110074   0.001607
    33  H    0.110548  -0.004061
    34  O   -0.534958   0.053862
    35  H    0.336256   0.003644
 Sum of Mulliken charges =  -0.00000   1.00000

 Dipole moment (field-independent basis, Debye):
    X=             -1.3978    Y=              3.5694    Z=             -0.5816  Tot=              3.8772
 Quadrupole moment (field-independent basis, Debye-Ang):
   XX=           -100.8566   YY=           -102.2204   ZZ=           -102.8734
   XY=              0.9616   XZ=             -7.0205   YZ=              1.1353

 Normal termination of Gaussian 16 at Sat May 25 04:44:55 2019.
