 Gaussian 16, Revision B.01,
 Gaussian 16:  ES64L-G16RevB.01 20-Dec-2017

 ----------------------------------------------------------------------
 #p td=(50-50,nstates=36) ub3lyp/6-31g(d,p) scrf=(iefpcm,solvent=aceton
 itrile) guess=(mix,always) empiricaldispersion=gd3
 ----------------------------------------------------------------------

 -------------------
 Title Card Required
 -------------------
 Symbolic Z-matrix:
 Charge =  0 Multiplicity = 2

                         Standard orientation:
 ---------------------------------------------------------------------
 Center     Atomic      Atomic             Coordinates (Angstroms)
 Number     Number       Type             X           Y           Z
 ---------------------------------------------------------------------
      1          6           0       -0.601112   -1.320901   -0.576788
      2          6           0        0.653645   -1.300739    0.570024
      3          8           0       -1.159301   -2.518996   -0.333664
      4          6           0        0.060585   -1.341291   -1.979454
      5          1           0       -0.727257   -1.439264   -2.729669
      6          1           0        0.623707   -0.427827   -2.170969
      7          1           0        0.734390   -2.194394   -2.048091
      8          6           0        0.023517   -1.375028    1.967569
      9          1           0       -0.659811   -0.550007    2.168134
     10          1           0       -0.537482   -2.307715    2.058390
     11          1           0        0.822261   -1.362772    2.713457
     12          6           0       -1.559330   -0.145189   -0.379575
     13          6           0       -2.740374   -0.343339    0.349667
     14          6           0       -1.306773    1.129754   -0.906806
     15          6           0       -3.640597    0.701650    0.555459
     16          1           0       -2.945623   -1.330744    0.748075
     17          6           0       -2.207082    2.177583   -0.704048
     18          1           0       -0.400550    1.319379   -1.469763
     19          6           0       -3.376304    1.968970    0.029489
     20          1           0       -4.549314    0.526180    1.124087
     21          1           0       -1.991384    3.157395   -1.119981
     22          1           0       -4.075599    2.784601    0.188012
     23          6           0        1.541033   -0.096586    0.370271
     24          6           0        2.695951   -0.193188   -0.425336
     25          6           0        1.239355    1.139786    0.965667
     26          6           0        3.525822    0.910638   -0.614235
     27          1           0        2.939732   -1.143260   -0.883961
     28          6           0        2.068377    2.243813    0.774196
     29          1           0        0.349069    1.250091    1.572420
     30          6           0        3.214494    2.134642   -0.017013
     31          1           0        4.416260    0.814475   -1.228235
     32          1           0        1.817182    3.190187    1.243287
     33          1           0        3.859090    2.995615   -0.166279
     34          8           0        1.411351   -2.462350    0.324566
     35          1           0        0.761692   -3.174622    0.199344
 ---------------------------------------------------------------------

 SCF Done:  E(UB3LYP) =  -770.392895532     A.U. after   26 cycles

 Excitation energies and oscillator strengths:

 Excited State   1:  2.005-A      0.5625 eV 2204.12 nm  f=0.0015  <S**2>=0.755
     58B -> 65B        0.12473
     59B -> 65B        0.16652
     60B -> 65B        0.51976
     61B -> 65B        0.24230
     62B -> 65B        0.61994
     63B -> 65B        0.26673
     64B -> 65B       -0.39750
 This state for optimization and/or second-order correction.
 Total Energy, E(TD-HF/TD-DFT) =  -770.372223654
 Copying the excited state density for this state as the 1-particle RhoCI density.

 Excited State   2:  2.018-A      1.8236 eV  679.90 nm  f=0.0063  <S**2>=0.768
     60B -> 65B        0.11124
     61B -> 65B        0.10923
     62B -> 65B        0.11099
     63B -> 65B        0.59912
     64B -> 65B        0.77073

 Excited State   3:  2.026-A      1.9889 eV  623.37 nm  f=0.0093  <S**2>=0.776
     62B -> 65B       -0.51659
     63B -> 65B        0.70890
     64B -> 65B       -0.46516

 Excited State   4:  2.043-A      2.2987 eV  539.37 nm  f=0.0291  <S**2>=0.793
     60B -> 65B        0.19254
     61B -> 65B        0.86811
     62B -> 65B       -0.41087
     63B -> 65B       -0.16824

 Excited State   5:  2.041-A      2.4205 eV  512.22 nm  f=0.0517  <S**2>=0.792
     59B -> 65B        0.19271
     60B -> 65B        0.76319
     61B -> 65B       -0.40460
     62B -> 65B       -0.39003
     63B -> 65B       -0.15843
     64B -> 65B        0.14085

 Excited State   6:  2.026-A      2.8119 eV  440.93 nm  f=0.0100  <S**2>=0.776
     59B -> 65B        0.95844
     60B -> 65B       -0.25304

 Excited State   7:  2.048-A      3.5772 eV  346.60 nm  f=0.0071  <S**2>=0.799
     48B -> 65B       -0.14423
     50B -> 65B        0.14019
     51B -> 65B        0.11774
     52B -> 65B       -0.11371
     56B -> 65B        0.11948
     57B -> 65B       -0.11663
     58B -> 65B        0.91711
     60B -> 65B       -0.10981

 Excited State   8:  3.426-A      3.7641 eV  329.39 nm  f=0.0018  <S**2>=2.684
     60A -> 68A       -0.10647
     62A -> 69A       -0.18266
     63A -> 67A        0.22184
     63A -> 68A        0.19534
     63A -> 69A       -0.22440
     64A -> 67A        0.20790
     64A -> 68A       -0.26748
     64A -> 69A       -0.18341
     65A -> 66A        0.23063
     65A -> 68A        0.28675
     58B -> 65B        0.10200
     60B -> 69B       -0.10815
     61B -> 69B        0.16009
     62B -> 66B        0.11351
     62B -> 67B       -0.18100
     62B -> 69B        0.18103
     63B -> 66B       -0.27613
     63B -> 68B        0.16828
     63B -> 69B       -0.19556
     64B -> 66B       -0.11561
     64B -> 67B       -0.23231
     64B -> 68B        0.34795

 Excited State   9:  3.387-A      3.8508 eV  321.97 nm  f=0.0085  <S**2>=2.618
     61A -> 66A       -0.12555
     62A -> 67A        0.35491
     62A -> 69A        0.18562
     63A -> 66A        0.22550
     63A -> 69A       -0.11404
     64A -> 66A       -0.25014
     64A -> 67A       -0.18817
     64A -> 69A       -0.16386
     65A -> 66A       -0.28182
     65A -> 68A        0.18980
     60B -> 66B       -0.22941
     60B -> 68B       -0.15312
     61B -> 66B        0.11053
     61B -> 67B       -0.31331
     61B -> 69B       -0.18307
     62B -> 67B        0.20982
     62B -> 68B        0.11358
     62B -> 69B        0.14271
     63B -> 66B        0.15691
     63B -> 68B        0.16794
     64B -> 66B       -0.26401
     64B -> 69B        0.12667

 Excited State  10:  2.016-A      4.0913 eV  303.05 nm  f=0.0034  <S**2>=0.766
     41B -> 65B       -0.13519
     47B -> 65B       -0.12839
     48B -> 65B        0.17703
     49B -> 65B        0.13161
     50B -> 65B       -0.25969
     55B -> 65B        0.55971
     56B -> 65B       -0.26712
     57B -> 65B        0.62725
     58B -> 65B        0.20824

 Excited State  11:  2.035-A      4.4200 eV  280.50 nm  f=0.0041  <S**2>=0.785
     51B -> 65B       -0.11302
     54B -> 65B       -0.21073
     55B -> 65B       -0.54329
     56B -> 65B        0.39207
     57B -> 65B        0.67128

 Excited State  12:  2.051-A      4.5852 eV  270.40 nm  f=0.0006  <S**2>=0.801
     55B -> 65B        0.50143
     56B -> 65B        0.83126
     58B -> 65B       -0.12134

 Excited State  13:  2.756-A      4.6472 eV  266.79 nm  f=0.0052  <S**2>=1.649
     62A -> 67A       -0.21136
     62A -> 69A       -0.13641
     63A -> 68A       -0.12753
     64A -> 66A       -0.21151
     64A -> 67A        0.16582
     65A -> 66A       -0.22056
     65A -> 67A       -0.15370
     51B -> 65B        0.13775
     53B -> 65B       -0.12967
     54B -> 65B        0.67468
     56B -> 65B        0.10238
     60B -> 68B       -0.10717
     61B -> 66B       -0.13320
     61B -> 67B        0.12324
     61B -> 69B        0.13304
     62B -> 68B        0.10338
     63B -> 66B        0.17490
     64B -> 67B       -0.23495

 Excited State  14:  3.268-A      4.6681 eV  265.60 nm  f=0.0037  <S**2>=2.420
     62A -> 69A       -0.18032
     63A -> 67A        0.16131
     63A -> 68A       -0.23317
     63A -> 69A       -0.18550
     64A -> 67A        0.31540
     64A -> 68A        0.12621
     64A -> 69A       -0.18674
     65A -> 66A       -0.28402
     65A -> 68A       -0.23634
     51B -> 65B       -0.10689
     53B -> 65B       -0.10812
     54B -> 65B       -0.26953
     55B -> 65B        0.11398
     57B -> 65B       -0.14008
     60B -> 69B       -0.11569
     61B -> 69B        0.16274
     62B -> 66B        0.15443
     62B -> 67B       -0.14460
     62B -> 68B        0.10077
     62B -> 69B        0.16740
     63B -> 67B        0.29516
     63B -> 68B       -0.16487
     63B -> 69B       -0.12087
     64B -> 66B        0.26039
     64B -> 68B       -0.23139
     64B -> 69B        0.10016

 Excited State  15:  3.283-A      4.6760 eV  265.15 nm  f=0.0001  <S**2>=2.445
     62A -> 68A        0.17999
     63A -> 66A        0.14956
     63A -> 67A        0.14696
     63A -> 68A        0.15946
     63A -> 69A       -0.20672
     64A -> 66A        0.20543
     64A -> 68A        0.26190
     64A -> 69A        0.14589
     65A -> 67A        0.35341
     65A -> 69A       -0.20817
     54B -> 65B        0.32190
     61B -> 68B       -0.17633
     62B -> 66B        0.19335
     62B -> 67B        0.11023
     62B -> 68B       -0.14335
     63B -> 66B       -0.27373
     63B -> 67B        0.13197
     63B -> 68B        0.13909
     63B -> 69B       -0.17051
     64B -> 67B        0.24835
     64B -> 68B       -0.15861
     64B -> 69B       -0.25119

 Excited State  16:  3.052-A      4.7281 eV  262.23 nm  f=0.0045  <S**2>=2.079
     62A -> 67A        0.30340
     63A -> 66A       -0.20506
     63A -> 69A       -0.10503
     64A -> 66A        0.18108
     64A -> 68A       -0.10561
     64A -> 69A       -0.22235
     65A -> 66A        0.17217
     65A -> 68A       -0.20569
     65A -> 69A        0.10340
     51B -> 65B        0.20195
     52B -> 65B        0.13158
     54B -> 65B        0.45605
     57B -> 65B        0.11786
     60B -> 67B        0.15190
     61B -> 66B        0.17710
     61B -> 67B       -0.24368
     62B -> 66B       -0.15827
     62B -> 69B        0.17458
     63B -> 68B       -0.23446
     64B -> 66B        0.17830
     64B -> 67B        0.11870
     64B -> 69B        0.19418

 Excited State  17:  3.372-A      4.7472 eV  261.17 nm  f=0.0003  <S**2>=2.593
     61A -> 67A       -0.10213
     62A -> 66A        0.34099
     63A -> 66A       -0.13156
     63A -> 67A        0.28022
     64A -> 66A       -0.12989
     64A -> 67A       -0.20295
     64A -> 68A        0.20211
     64A -> 69A       -0.15753
     65A -> 67A       -0.27587
     65A -> 68A       -0.10605
     65A -> 69A       -0.25387
     60B -> 66B       -0.18021
     60B -> 67B        0.13092
     60B -> 69B        0.10470
     61B -> 66B        0.25638
     61B -> 67B        0.22046
     61B -> 68B        0.15420
     62B -> 67B       -0.26226
     62B -> 68B       -0.16397
     63B -> 69B       -0.23171
     64B -> 66B       -0.20186
     64B -> 67B        0.13736
     64B -> 68B       -0.19422

 Excited State  18:  2.040-A      5.0134 eV  247.31 nm  f=0.0075  <S**2>=0.791
     47B -> 65B        0.20474
     48B -> 65B       -0.36211
     49B -> 65B       -0.26958
     50B -> 65B        0.31242
     51B -> 65B        0.49474
     52B -> 65B       -0.37780
     54B -> 65B       -0.19564
     55B -> 65B        0.22581
     57B -> 65B        0.26070
     58B -> 65B       -0.22294

 Excited State  19:  3.303-A      5.0392 eV  246.04 nm  f=0.0001  <S**2>=2.477
     62A -> 66A        0.15675
     62A -> 68A       -0.23778
     63A -> 66A       -0.24542
     63A -> 68A       -0.20195
     63A -> 69A       -0.12876
     64A -> 66A       -0.35563
     64A -> 68A       -0.17039
     64A -> 69A        0.20982
     65A -> 67A        0.52188
     65A -> 68A       -0.11944
     61B -> 68B        0.16256
     62B -> 66B       -0.21115
     62B -> 68B        0.10891
     63B -> 67B        0.24365
     63B -> 68B       -0.15734
     64B -> 66B       -0.21227
     64B -> 69B       -0.20912

 Excited State  20:  3.357-A      5.0916 eV  243.51 nm  f=0.0005  <S**2>=2.567
     62A -> 66A        0.39284
     63A -> 67A       -0.25109
     63A -> 68A        0.22901
     64A -> 66A       -0.17571
     64A -> 67A        0.29816
     64A -> 68A        0.29150
     65A -> 66A        0.12797
     65A -> 67A        0.18341
     65A -> 69A        0.31919
     60B -> 67B       -0.12009
     61B -> 66B        0.26615
     62B -> 68B       -0.21581
     63B -> 68B        0.17912
     63B -> 69B        0.15378
     64B -> 66B        0.13332
     64B -> 67B       -0.25925
     64B -> 68B       -0.16269
     64B -> 69B        0.11685

 Excited State  21:  2.068-A      5.1419 eV  241.12 nm  f=0.0009  <S**2>=0.819
     49B -> 65B        0.11342
     51B -> 65B       -0.24435
     52B -> 65B       -0.16594
     53B -> 65B        0.91541

 Excited State  22:  2.031-A      5.2842 eV  234.63 nm  f=0.0038  <S**2>=0.781
     47B -> 65B        0.16252
     48B -> 65B       -0.35628
     50B -> 65B        0.53959
     51B -> 65B       -0.49202
     52B -> 65B        0.45201
     53B -> 65B       -0.12540
     55B -> 65B        0.15357
     56B -> 65B       -0.15366
     57B -> 65B        0.12324

 Excited State  23:  2.110-A      5.3015 eV  233.87 nm  f=0.0014  <S**2>=0.863
     65A -> 66A       -0.16994
     51B -> 65B        0.51288
     52B -> 65B        0.73811
     53B -> 65B        0.26372
     54B -> 65B       -0.12056
     64B -> 67B       -0.11350

 Excited State  24:  2.115-A      5.3349 eV  232.40 nm  f=0.0003  <S**2>=0.869
     62A -> 68A        0.10688
     63A -> 66A        0.13963
     63A -> 67A       -0.11455
     63A -> 68A        0.17829
     64A -> 66A        0.16877
     64A -> 67A        0.21796
     64A -> 68A        0.23672
     65A -> 66A        0.13376
     65A -> 67A       -0.28681
     65A -> 68A        0.10019
     65A -> 69A        0.22615
     61B -> 68B        0.13261
     62B -> 66B       -0.23209
     62B -> 68B        0.18735
     63B -> 67B        0.41277
     63B -> 68B       -0.23261
     64B -> 66B       -0.34497
     64B -> 67B        0.13987
     64B -> 69B       -0.31289

 Excited State  25:  2.249-A      5.3925 eV  229.92 nm  f=0.0009  <S**2>=1.015
     62A -> 66A        0.16506
     64A -> 66A       -0.22065
     64A -> 67A        0.21525
     64A -> 68A        0.16564
     65A -> 66A        0.20662
     65A -> 67A        0.17400
     65A -> 69A        0.16875
     52B -> 65B        0.10109
     60B -> 67B        0.17166
     60B -> 69B        0.12212
     61B -> 66B       -0.34893
     61B -> 67B       -0.10066
     61B -> 68B       -0.15618
     62B -> 66B        0.33765
     62B -> 67B       -0.10425
     62B -> 68B        0.18513
     62B -> 69B       -0.10466
     63B -> 66B        0.21676
     63B -> 67B       -0.24583
     63B -> 69B       -0.13792
     64B -> 67B        0.41294
     64B -> 68B        0.11710

 Excited State  26:  2.063-A      5.4670 eV  226.79 nm  f=0.0014  <S**2>=0.814
     65A -> 66A        0.11392
     48B -> 65B       -0.15221
     49B -> 65B        0.91408
     51B -> 65B        0.19236
     54B -> 65B       -0.14242

 Excited State  27:  2.605-A      5.4885 eV  225.90 nm  f=0.0852  <S**2>=1.446
     60A -> 66A        0.12413
     61A -> 66A       -0.10548
     62A -> 66A       -0.28071
     63A -> 66A        0.12715
     63A -> 67A        0.10180
     63A -> 68A       -0.28806
     64A -> 66A       -0.13607
     64A -> 68A        0.11128
     65A -> 66A        0.72129
     65A -> 69A       -0.13477
     49B -> 65B       -0.12428
     60B -> 67B       -0.12101
     63B -> 67B        0.11895
     64B -> 67B       -0.10597
     64B -> 68B       -0.26896

 Excited State  28:  2.980-A      5.5545 eV  223.21 nm  f=0.0083  <S**2>=1.971
     61A -> 68A       -0.12426
     63A -> 66A       -0.28131
     63A -> 68A       -0.24038
     64A -> 66A        0.22146
     64A -> 68A        0.15452
     65A -> 68A        0.64962
     49B -> 65B        0.12403
     50B -> 65B        0.10416
     62B -> 66B       -0.21480
     62B -> 67B       -0.16572
     62B -> 68B        0.22332
     63B -> 68B        0.14914
     64B -> 66B        0.16377
     64B -> 67B        0.11160
     64B -> 68B       -0.18999

 Excited State  29:  2.057-A      5.5917 eV  221.73 nm  f=0.0021  <S**2>=0.808
     47B -> 65B       -0.16399
     48B -> 65B        0.67791
     50B -> 65B        0.65824
     51B -> 65B        0.10957

 Excited State  30:  2.492-A      5.6627 eV  218.95 nm  f=0.0295  <S**2>=1.303
     63A -> 66A       -0.19224
     63A -> 68A       -0.12341
     64A -> 66A        0.22700
     65A -> 68A        0.36911
     60B -> 66B        0.13749
     61B -> 66B        0.17286
     62B -> 66B        0.33567
     62B -> 67B        0.27374
     62B -> 68B       -0.35687
     63B -> 66B        0.40496
     63B -> 67B        0.20519
     63B -> 68B       -0.25737
     64B -> 68B        0.15149

 Excited State  31:  2.757-A      5.7648 eV  215.07 nm  f=0.0109  <S**2>=1.651
     60A -> 67A        0.10244
     62A -> 67A       -0.16171
     63A -> 66A        0.10912
     63A -> 67A        0.17830
     63A -> 69A        0.17802
     64A -> 66A        0.17051
     64A -> 67A       -0.33451
     64A -> 68A        0.10977
     64A -> 69A       -0.25436
     65A -> 67A        0.36629
     65A -> 69A        0.39559
     62B -> 67B       -0.14974
     63B -> 66B       -0.15055
     63B -> 67B       -0.17357
     63B -> 68B       -0.23617
     64B -> 66B       -0.31917
     64B -> 67B       -0.26066
     64B -> 68B       -0.17680

 Excited State  32:  2.572-A      5.7866 eV  214.26 nm  f=0.0233  <S**2>=1.404
     63A -> 66A        0.18308
     63A -> 67A        0.20211
     64A -> 67A       -0.30787
     64A -> 69A       -0.16945
     65A -> 67A        0.18499
     65A -> 69A        0.30654
     61B -> 67B        0.15053
     61B -> 68B        0.11414
     62B -> 66B       -0.14929
     63B -> 66B        0.30219
     63B -> 67B        0.31308
     63B -> 68B        0.24527
     64B -> 66B        0.44055
     64B -> 67B        0.17990
     64B -> 68B        0.28999

 Excited State  33:  2.185-A      5.8217 eV  212.97 nm  f=0.0130  <S**2>=0.943
     63A -> 66A        0.22240
     63A -> 69A        0.20590
     64A -> 66A        0.24877
     64A -> 67A        0.27527
     64A -> 68A       -0.29294
     64A -> 69A       -0.23131
     65A -> 67A        0.21870
     65A -> 69A       -0.25750
     60B -> 67B       -0.14180
     61B -> 66B        0.16694
     62B -> 67B       -0.19253
     62B -> 69B        0.16462
     63B -> 66B        0.38839
     63B -> 67B       -0.15484
     63B -> 68B        0.20538
     63B -> 69B        0.15980
     64B -> 66B       -0.11197
     64B -> 67B        0.10572
     64B -> 68B       -0.18699
     64B -> 69B       -0.15036

 Excited State  34:  3.168-A      5.8360 eV  212.45 nm  f=0.0019  <S**2>=2.259
     61A -> 67A       -0.11338
     63A -> 66A        0.10216
     63A -> 67A       -0.14775
     63A -> 69A        0.25131
     64A -> 67A        0.16578
     64A -> 69A       -0.30079
     65A -> 67A        0.20448
     65A -> 69A       -0.32189
     60B -> 66B       -0.16083
     60B -> 67B        0.20223
     61B -> 66B       -0.19209
     61B -> 67B        0.16883
     62B -> 66B       -0.26609
     62B -> 67B        0.33377
     62B -> 69B       -0.27932
     63B -> 66B       -0.12649
     63B -> 67B        0.16262
     63B -> 69B       -0.24167
     64B -> 69B        0.29713

 Excited State  35:  2.376-A      5.8797 eV  210.87 nm  f=0.0031  <S**2>=1.161
     62A -> 66A        0.16906
     63A -> 67A        0.36010
     63A -> 69A       -0.11337
     64A -> 66A        0.16451
     64A -> 68A       -0.34005
     64A -> 69A        0.22006
     65A -> 69A        0.33506
     62B -> 67B        0.34287
     62B -> 68B        0.15362
     63B -> 67B        0.13379
     63B -> 68B        0.21513
     64B -> 66B       -0.23091
     64B -> 67B        0.18064
     64B -> 68B       -0.29053
     64B -> 69B        0.29037

 Excited State  36:  2.674-A      5.9247 eV  209.27 nm  f=0.0037  <S**2>=1.538
     62A -> 66A       -0.19768
     62A -> 67A       -0.16509
     63A -> 66A       -0.23928
     63A -> 67A       -0.22980
     63A -> 69A        0.12699
     64A -> 68A        0.15028
     64A -> 69A       -0.11983
     62B -> 66B        0.19456
     62B -> 67B       -0.16024
     63B -> 66B       -0.20522
     63B -> 67B        0.33595
     63B -> 68B        0.26048
     63B -> 69B        0.36009
     64B -> 66B       -0.24090
     64B -> 67B        0.27077
     64B -> 68B        0.14273
     64B -> 69B        0.36347

 The electronic state is 2-A.
 Alpha  occ. eigenvalues --  -19.16932 -19.16043 -10.27572 -10.26034 -10.20419
 Alpha  occ. eigenvalues --  -10.19703 -10.19668 -10.19497 -10.19454 -10.19449
 Alpha  occ. eigenvalues --  -10.19396 -10.19138 -10.19107 -10.19050 -10.19034
 Alpha  occ. eigenvalues --  -10.18752 -10.18414 -10.18055  -1.05334  -1.01596
 Alpha  occ. eigenvalues --   -0.86275  -0.85329  -0.79229  -0.76101  -0.75045
 Alpha  occ. eigenvalues --   -0.74475  -0.72861  -0.72303  -0.64859  -0.62326
 Alpha  occ. eigenvalues --   -0.60826  -0.60041  -0.58333  -0.55886  -0.52639
 Alpha  occ. eigenvalues --   -0.51824  -0.50163  -0.47690  -0.46233  -0.45535
 Alpha  occ. eigenvalues --   -0.45287  -0.44747  -0.44129  -0.42900  -0.42235
 Alpha  occ. eigenvalues --   -0.41973  -0.41461  -0.40461  -0.38576  -0.38461
 Alpha  occ. eigenvalues --   -0.37822  -0.37255  -0.36725  -0.36253  -0.34757
 Alpha  occ. eigenvalues --   -0.34602  -0.34319  -0.33665  -0.30767  -0.28753
 Alpha  occ. eigenvalues --   -0.27585  -0.26002  -0.25167  -0.24557  -0.23610
 Alpha virt. eigenvalues --   -0.01375  -0.01162  -0.00680   0.00209   0.08796
 Alpha virt. eigenvalues --    0.09731   0.11250   0.12382   0.12788   0.13493
 Alpha virt. eigenvalues --    0.13760   0.14336   0.14602   0.15577   0.15993

  Beta  occ. eigenvalues --  -19.15975 -19.15189 -10.27263 -10.26044 -10.20432
  Beta  occ. eigenvalues --  -10.19644 -10.19619 -10.19506 -10.19472 -10.19452
  Beta  occ. eigenvalues --  -10.19367 -10.19131 -10.19099 -10.19051 -10.19034
  Beta  occ. eigenvalues --  -10.18747 -10.18281 -10.18042  -1.04585  -0.98542
  Beta  occ. eigenvalues --   -0.86149  -0.85245  -0.78767  -0.75762  -0.74986
  Beta  occ. eigenvalues --   -0.74448  -0.72683  -0.71874  -0.64512  -0.62046
  Beta  occ. eigenvalues --   -0.60770  -0.60012  -0.57964  -0.55398  -0.52229
  Beta  occ. eigenvalues --   -0.51665  -0.49391  -0.47358  -0.45933  -0.45168
  Beta  occ. eigenvalues --   -0.44916  -0.44648  -0.44036  -0.42759  -0.42163
  Beta  occ. eigenvalues --   -0.41940  -0.40810  -0.39841  -0.38428  -0.38232
  Beta  occ. eigenvalues --   -0.37492  -0.36796  -0.36376  -0.35570  -0.34555
  Beta  occ. eigenvalues --   -0.34391  -0.33820  -0.32644  -0.28991  -0.26720
  Beta  occ. eigenvalues --   -0.25843  -0.24977  -0.24618  -0.24324
  Beta virt. eigenvalues --   -0.14622  -0.01086  -0.01033  -0.00438   0.00312
  Beta virt. eigenvalues --    0.08867   0.09763   0.11426   0.12562   0.13037
  Beta virt. eigenvalues --    0.13574   0.13947   0.14550   0.14702   0.15679

 Mulliken charges and spin densities:
               1          2
     1  C    0.232576  -0.024917
     2  C    0.219499   0.148731
     3  O   -0.460977   0.693965
     4  C   -0.320893   0.064685
     5  H    0.124404   0.001027
     6  H    0.125048   0.002714
     7  H    0.122053  -0.002994
     8  C   -0.322215   0.013048
     9  H    0.124700  -0.000319
    10  H    0.118561  -0.001814
    11  H    0.122170   0.000879
    12  C    0.089521  -0.003936
    13  C   -0.125160   0.007392
    14  C   -0.124076   0.008665
    15  C   -0.103313  -0.002588
    16  H    0.102074  -0.001389
    17  C   -0.111282  -0.004846
    18  H    0.101683  -0.000323
    19  C   -0.097365   0.009095
    20  H    0.101007   0.000045
    21  H    0.102022   0.000191
    22  H    0.101536  -0.000353
    23  C    0.090420  -0.015556
    24  C   -0.109038   0.043083
    25  C   -0.111738   0.038765
    26  C   -0.104782  -0.022668
    27  H    0.114462  -0.001794
    28  C   -0.110251  -0.021458
    29  H    0.107600  -0.001524
    30  C   -0.090582   0.048855
    31  H    0.106531   0.000914
    32  H    0.107470   0.000790
    33  H    0.107529  -0.002081
    34  O   -0.558406   0.026049
    35  H    0.329213  -0.000333
 Sum of Mulliken charges =  -0.00000   1.00000

 Dipole moment (field-independent basis, Debye):
    X=              0.6591    Y=              2.8113    Z=              0.0519  Tot=              2.8880
 Quadrupole moment (field-independent basis, Debye-Ang):
   XX=           -102.1640   YY=           -101.0881   ZZ=           -102.8024
   XY=              0.1580   XZ=             -6.7541   YZ=             -0.1674

 Normal termination of Gaussian 16 at Sat May 25 04:45:46 2019.
