 Gaussian 16, Revision B.01,
 Gaussian 16:  ES64L-G16RevB.01 20-Dec-2017

 ----------------------------------------------------------------------
 #p td=(50-50,nstates=36) ub3lyp/6-31g(d,p) scrf=(iefpcm,solvent=aceton
 itrile) guess=(mix,always) empiricaldispersion=gd3
 ----------------------------------------------------------------------

 -------------------
 Title Card Required
 -------------------
 Symbolic Z-matrix:
 Charge =  0 Multiplicity = 2

                         Standard orientation:
 ---------------------------------------------------------------------
 Center     Atomic      Atomic             Coordinates (Angstroms)
 Number     Number       Type             X           Y           Z
 ---------------------------------------------------------------------
      1          6           0       -1.081880   -1.442111   -0.943681
      2          6           0        0.767735   -1.281172    1.016682
      3          8           0       -1.483332   -2.485886   -0.408036
      4          6           0       -0.089820   -1.515520   -2.084828
      5          1           0       -0.607707   -1.271358   -3.019654
      6          1           0        0.736579   -0.811731   -1.971497
      7          1           0        0.306548   -2.528708   -2.146024
      8          6           0       -0.237100   -1.214919    2.123371
      9          1           0       -0.660499   -0.218864    2.247431
     10          1           0       -1.061636   -1.904139    1.917366
     11          1           0        0.224568   -1.517530    3.073325
     12          6           0       -1.685559   -0.125935   -0.592508
     13          6           0       -2.798798   -0.101960    0.266378
     14          6           0       -1.177448    1.089348   -1.081960
     15          6           0       -3.384405    1.105362    0.633736
     16          1           0       -3.188000   -1.044913    0.633818
     17          6           0       -1.762724    2.298670   -0.710199
     18          1           0       -0.313989    1.098934   -1.736524
     19          6           0       -2.865178    2.310632    0.147868
     20          1           0       -4.244431    1.111263    1.296547
     21          1           0       -1.354212    3.231850   -1.085461
     22          1           0       -3.318983    3.254008    0.436466
     23          6           0        1.620318   -0.211921    0.611901
     24          6           0        2.687605   -0.440297   -0.303686
     25          6           0        1.418588    1.122368    1.062433
     26          6           0        3.489408    0.604745   -0.742445
     27          1           0        2.863916   -1.449116   -0.657619
     28          6           0        2.227790    2.157691    0.614002
     29          1           0        0.616677    1.344031    1.756626
     30          6           0        3.268964    1.913325   -0.291353
     31          1           0        4.295782    0.401579   -1.441632
     32          1           0        2.045701    3.167561    0.970432
     33          1           0        3.897320    2.727585   -0.638449
     34          8           0        1.118229   -2.532876    0.598289
     35          1           0        0.298225   -3.050195    0.488567
 ---------------------------------------------------------------------

 SCF Done:  E(UB3LYP) =  -770.427838567     A.U. after   20 cycles

 Excitation energies and oscillator strengths:

 Excited State   1:  2.039-A      2.1429 eV  578.59 nm  f=0.1210  <S**2>=0.789
     65A -> 66A        0.99499
 This state for optimization and/or second-order correction.
 Total Energy, E(TD-HF/TD-DFT) =  -770.349090089
 Copying the excited state density for this state as the 1-particle RhoCI density.

 Excited State   2:  2.083-A      3.0931 eV  400.84 nm  f=0.0008  <S**2>=0.835
     65A -> 67A        0.59365
     65A -> 68A        0.64871
     61B -> 65B        0.11996
     63B -> 65B        0.12418
     64B -> 65B        0.39201
     64B -> 66B        0.12959

 Excited State   3:  2.807-A      3.1659 eV  391.62 nm  f=0.0008  <S**2>=1.720
     63A -> 66A       -0.31110
     62B -> 65B        0.79452
     62B -> 66B       -0.30069
     62B -> 69B        0.12195
     63B -> 65B        0.31337
     63B -> 66B       -0.11263

 Excited State   4:  2.556-A      3.2577 eV  380.59 nm  f=0.0137  <S**2>=1.384
     60A -> 66A        0.16569
     62A -> 66A       -0.21557
     64A -> 67A        0.10916
     65A -> 67A        0.15076
     65A -> 69A        0.33140
     65A -> 70A       -0.17738
     60B -> 66B        0.20515
     61B -> 66B        0.13087
     62B -> 65B       -0.26555
     63B -> 65B        0.65577
     64B -> 65B       -0.30223

 Excited State   5:  2.822-A      3.3251 eV  372.87 nm  f=0.0007  <S**2>=1.741
     61A -> 67A       -0.13585
     62A -> 66A        0.35458
     63A -> 66A        0.17899
     64A -> 66A       -0.10308
     64A -> 68A        0.11161
     65A -> 67A        0.20119
     65A -> 68A       -0.23381
     65A -> 69A        0.38065
     60B -> 65B        0.40698
     61B -> 65B        0.42052
     61B -> 66B       -0.13965
     61B -> 67B        0.15103
     63B -> 66B        0.28427
     64B -> 66B       -0.10381
     64B -> 68B        0.10462

 Excited State   6:  2.151-A      3.4499 eV  359.38 nm  f=0.0006  <S**2>=0.907
     65A -> 67A        0.71966
     65A -> 68A       -0.39045
     65A -> 69A       -0.23105
     60B -> 65B       -0.18601
     62B -> 65B        0.12751
     63B -> 65B       -0.19518
     63B -> 66B       -0.12645
     64B -> 65B       -0.36010

 Excited State   7:  2.214-A      3.6467 eV  339.99 nm  f=0.0109  <S**2>=0.976
     61A -> 66A       -0.14056
     65A -> 67A        0.14268
     65A -> 68A       -0.57160
     61B -> 65B       -0.16006
     62B -> 65B       -0.13113
     63B -> 65B        0.12228
     64B -> 65B        0.73380

 Excited State   8:  2.728-A      3.8109 eV  325.34 nm  f=0.0019  <S**2>=1.610
     61A -> 66A        0.19310
     63A -> 66A        0.23055
     64A -> 66A        0.43059
     65A -> 67A       -0.15678
     65A -> 68A       -0.10712
     60B -> 65B       -0.37943
     61B -> 65B        0.62246
     61B -> 66B       -0.13131
     63B -> 65B        0.16745
     64B -> 65B        0.10247
     64B -> 66B        0.21436

 Excited State   9:  2.603-A      3.8462 eV  322.35 nm  f=0.0001  <S**2>=1.444
     62A -> 66A       -0.41741
     63A -> 66A        0.75022
     63A -> 70A        0.12404
     64A -> 66A        0.11051
     60B -> 65B        0.16637
     61B -> 65B       -0.20958
     62B -> 65B        0.35285

 Excited State  10:  2.470-A      4.1740 eV  297.04 nm  f=0.0767  <S**2>=1.275
     61A -> 67A        0.18471
     62A -> 66A       -0.21107
     63A -> 66A       -0.18411
     64A -> 66A        0.20749
     64A -> 67A        0.19390
     65A -> 69A        0.57451
     60B -> 65B        0.12493
     60B -> 66B        0.13656
     60B -> 67B        0.13523
     61B -> 65B        0.11072
     61B -> 67B       -0.20687
     63B -> 65B       -0.50800
     64B -> 67B        0.12594

 Excited State  11:  3.203-A      4.3204 eV  286.97 nm  f=0.0164  <S**2>=2.315
     60A -> 68A       -0.10010
     61A -> 66A       -0.15604
     61A -> 68A       -0.32519
     62A -> 67A        0.12718
     64A -> 66A       -0.17673
     64A -> 67A        0.37152
     64A -> 68A        0.23780
     65A -> 69A       -0.34108
     60B -> 68B       -0.12893
     61B -> 65B        0.19530
     61B -> 67B       -0.16617
     61B -> 68B        0.18391
     62B -> 68B       -0.10167
     63B -> 65B       -0.13390
     63B -> 68B        0.12174
     64B -> 67B        0.30861
     64B -> 68B        0.40142

 Excited State  12:  2.928-A      4.3637 eV  284.13 nm  f=0.0187  <S**2>=1.893
     61A -> 66A       -0.18176
     61A -> 67A        0.27298
     61A -> 68A        0.11970
     62A -> 66A       -0.12401
     64A -> 66A       -0.36622
     64A -> 68A       -0.32875
     65A -> 69A       -0.18834
     60B -> 65B        0.31236
     61B -> 65B        0.40621
     61B -> 67B       -0.25473
     62B -> 65B       -0.11180
     63B -> 65B        0.11489
     63B -> 66B       -0.20432
     63B -> 68B       -0.10585
     64B -> 68B       -0.31442

 Excited State  13:  2.692-A      4.4294 eV  279.91 nm  f=0.0537  <S**2>=1.562
     61A -> 66A        0.27679
     61A -> 67A        0.16139
     62A -> 66A        0.37691
     64A -> 66A        0.41812
     64A -> 68A       -0.12131
     65A -> 69A       -0.25843
     60B -> 65B        0.49676
     60B -> 67B        0.16876
     61B -> 65B       -0.24470
     61B -> 66B       -0.16112
     63B -> 67B       -0.11161
     64B -> 66B        0.16516
     64B -> 67B        0.12499

 Excited State  14:  2.991-A      4.5948 eV  269.84 nm  f=0.0522  <S**2>=1.986
     61A -> 67A       -0.22456
     62A -> 66A       -0.33038
     63A -> 66A       -0.21986
     64A -> 66A        0.21778
     64A -> 67A       -0.16208
     64A -> 68A        0.16499
     65A -> 69A       -0.15033
     60B -> 65B        0.44781
     60B -> 67B       -0.14549
     61B -> 65B        0.16833
     61B -> 66B        0.17236
     61B -> 67B        0.31035
     63B -> 66B       -0.37804
     64B -> 66B        0.13089
     64B -> 67B       -0.14390
     64B -> 68B        0.16505

 Excited State  15:  2.187-A      4.6132 eV  268.76 nm  f=0.0217  <S**2>=0.946
     65A -> 70A        0.90603
     59B -> 65B       -0.10825
     60B -> 66B       -0.18505
     61B -> 66B       -0.14113
     63B -> 65B        0.20003

 Excited State  16:  2.611-A      4.6966 eV  263.99 nm  f=0.0010  <S**2>=1.454
     61A -> 66A       -0.26769
     63A -> 66A       -0.10290
     61B -> 66B        0.19997
     62B -> 65B        0.29847
     62B -> 66B        0.70368
     63B -> 66B        0.26133
     64B -> 66B        0.42957

 Excited State  17:  3.247-A      4.7267 eV  262.31 nm  f=0.0012  <S**2>=2.386
     61A -> 66A        0.62366
     62A -> 66A       -0.16387
     64A -> 66A       -0.30954
     60B -> 66B        0.10111
     61B -> 66B       -0.10580
     62B -> 66B        0.49732
     63B -> 66B       -0.16966
     64B -> 65B        0.16595
     64B -> 66B       -0.26625

 Excited State  18:  2.174-A      4.8403 eV  256.15 nm  f=0.0214  <S**2>=0.931
     61A -> 66A        0.25864
     62A -> 66A       -0.13672
     64A -> 66A       -0.43200
     61B -> 65B       -0.11742
     61B -> 66B       -0.19051
     62B -> 66B       -0.25022
     64B -> 66B        0.73512

 Excited State  19:  3.205-A      4.9997 eV  247.98 nm  f=0.0371  <S**2>=2.317
     60A -> 66A        0.61382
     61A -> 68A        0.10455
     64A -> 66A       -0.12418
     64A -> 67A       -0.11457
     64A -> 68A       -0.11207
     65A -> 69A       -0.12657
     65A -> 70A        0.27236
     60B -> 66B        0.38904
     61B -> 66B        0.21844
     62B -> 66B       -0.12245
     63B -> 66B        0.37882
     63B -> 67B       -0.11049
     63B -> 69B       -0.10073

 Excited State  20:  2.080-A      5.0672 eV  244.68 nm  f=0.0202  <S**2>=0.832
     60A -> 66A        0.12500
     62A -> 66A        0.11600
     65A -> 70A        0.11083
     59B -> 65B        0.90788
     59B -> 66B        0.17852
     63B -> 66B       -0.21919

 Excited State  21:  2.426-A      5.0776 eV  244.18 nm  f=0.0300  <S**2>=1.222
     60A -> 66A       -0.14938
     60A -> 68A        0.10067
     61A -> 66A        0.44044
     62A -> 67A        0.31315
     62A -> 68A       -0.10944
     63A -> 67A        0.21446
     64A -> 67A       -0.11682
     60B -> 66B       -0.32932
     61B -> 66B        0.60075
     62B -> 66B       -0.14419
     63B -> 66B        0.18381

 Excited State  22:  3.353-A      5.1647 eV  240.06 nm  f=0.0024  <S**2>=2.561
     60A -> 66A        0.18290
     60A -> 67A       -0.15366
     62A -> 67A        0.37220
     62A -> 68A       -0.15631
     63A -> 67A        0.26722
     63A -> 68A       -0.11620
     64A -> 67A       -0.15749
     57B -> 65B        0.10101
     60B -> 66B        0.18952
     60B -> 67B       -0.31946
     60B -> 68B        0.10394
     61B -> 66B       -0.28611
     61B -> 67B       -0.29398
     63B -> 67B        0.46935
     64B -> 67B       -0.19729

 Excited State  23:  2.135-A      5.1945 eV  238.68 nm  f=0.2025  <S**2>=0.889
     60A -> 66A       -0.24710
     61A -> 67A        0.10242
     62A -> 66A       -0.42753
     63A -> 66A       -0.25295
     64A -> 66A        0.10833
     64A -> 68A       -0.10639
     65A -> 69A       -0.24223
     57B -> 65B       -0.10204
     59B -> 65B        0.26439
     60B -> 65B        0.14913
     61B -> 66B       -0.35699
     63B -> 66B        0.54489

 Excited State  24:  3.121-A      5.3182 eV  233.13 nm  f=0.0124  <S**2>=2.185
     52A -> 66A        0.10314
     53A -> 66A        0.11846
     55A -> 66A        0.13526
     56A -> 66A        0.33583
     57A -> 66A       -0.23202
     60A -> 66A       -0.24958
     62A -> 67A       -0.10720
     62A -> 69A        0.11345
     62A -> 70A        0.16060
     63A -> 70A        0.10266
     53B -> 65B        0.14432
     55B -> 65B        0.18042
     55B -> 66B       -0.10396
     56B -> 65B       -0.10589
     57B -> 65B        0.49542
     57B -> 66B       -0.21751
     58B -> 65B       -0.22645
     60B -> 69B        0.10713
     61B -> 69B        0.11459
     63B -> 69B       -0.13541

 Excited State  25:  2.145-A      5.4409 eV  227.87 nm  f=0.0679  <S**2>=0.901
     60A -> 66A       -0.55778
     62A -> 66A        0.16730
     64A -> 67A       -0.10860
     65A -> 70A        0.13110
     60B -> 66B        0.67388
     61B -> 66B        0.22631
     63B -> 67B        0.12219

 Excited State  26:  3.395-A      5.4851 eV  226.04 nm  f=0.0011  <S**2>=2.632
     60A -> 67A        0.24136
     60A -> 68A        0.32496
     61A -> 67A       -0.13258
     61A -> 68A       -0.17256
     61A -> 69A       -0.10627
     62A -> 67A        0.10406
     62A -> 68A        0.23850
     63A -> 68A        0.16218
     64A -> 68A       -0.14146
     64A -> 69A        0.15077
     60B -> 67B        0.19854
     60B -> 68B        0.29031
     61B -> 67B        0.10417
     61B -> 68B        0.11143
     62B -> 68B       -0.13568
     63B -> 67B        0.22335
     63B -> 68B        0.56349
     64B -> 68B       -0.17116

 Excited State  27:  2.043-A      5.7423 eV  215.91 nm  f=0.0003  <S**2>=0.793
     65A -> 71A        0.94458
     65A -> 72A        0.25226
     65A -> 73A       -0.13995

 Excited State  28:  2.164-A      5.8193 eV  213.06 nm  f=0.0005  <S**2>=0.921
     57B -> 65B        0.27048
     58B -> 65B        0.88836
     58B -> 66B        0.23705
     62B -> 67B       -0.10176

 Excited State  29:  3.424-A      5.8242 eV  212.88 nm  f=0.0002  <S**2>=2.681
     62A -> 67A       -0.27156
     63A -> 67A        0.45943
     63A -> 68A       -0.14020
     64A -> 67A        0.15481
     58B -> 65B        0.11711
     61B -> 67B        0.19038
     62B -> 67B        0.70631
     62B -> 68B       -0.11139
     63B -> 67B        0.18836
     64B -> 67B        0.20341

 Excited State  30:  2.081-A      5.8500 eV  211.94 nm  f=0.0036  <S**2>=0.832
     62A -> 67A       -0.32513
     63A -> 67A        0.64729
     63A -> 68A       -0.19035
     64A -> 67A        0.27021
     61B -> 67B       -0.12482
     62B -> 67B       -0.50005
     63B -> 67B       -0.15735
     64B -> 67B       -0.20857

 Excited State  31:  2.471-A      5.9703 eV  207.67 nm  f=0.0545  <S**2>=1.276
     63A -> 67A        0.18016
     64A -> 67A       -0.29656
     60B -> 67B       -0.14855
     61B -> 67B        0.17174
     62B -> 67B       -0.34474
     64B -> 67B        0.77051
     64B -> 68B       -0.16144

 Excited State  32:  2.945-A      5.9960 eV  206.78 nm  f=0.0058  <S**2>=1.918
     60A -> 69A        0.36772
     60A -> 70A       -0.13575
     61A -> 69A       -0.19060
     62A -> 67A        0.12110
     62A -> 69A        0.18287
     62A -> 70A       -0.11244
     63A -> 69A        0.14718
     64A -> 69A       -0.18882
     65A -> 78A       -0.11784
     53B -> 65B       -0.27154
     55B -> 65B       -0.18865
     56B -> 65B       -0.15514
     57B -> 65B        0.32878
     57B -> 66B        0.14347
     60B -> 66B       -0.15441
     60B -> 69B       -0.17489
     60B -> 70B        0.15529
     63B -> 66B       -0.11710
     63B -> 67B       -0.15806
     63B -> 69B       -0.23769
     63B -> 70B        0.27876

 Excited State  33:  2.717-A      6.0312 eV  205.57 nm  f=0.0352  <S**2>=1.596
     60A -> 67A       -0.13247
     60A -> 68A       -0.12825
     61A -> 66A        0.12278
     61A -> 68A        0.24653
     61A -> 69A       -0.18013
     61A -> 70A        0.14435
     62A -> 67A       -0.23074
     62A -> 68A       -0.20015
     62A -> 69A        0.14744
     63A -> 67A       -0.25245
     63A -> 68A       -0.13163
     64A -> 67A        0.32563
     64A -> 69A        0.36572
     62B -> 67B       -0.19916
     63B -> 67B        0.48545
     64B -> 68B       -0.13492

 Excited State  34:  2.543-A      6.1080 eV  202.98 nm  f=0.0002  <S**2>=1.367
     55B -> 65B       -0.10708
     56B -> 65B        0.83683
     56B -> 66B       -0.25956
     57B -> 65B        0.35803

 Excited State  35:  2.801-A      6.1376 eV  202.01 nm  f=0.0205  <S**2>=1.711
     60A -> 67A        0.14169
     61A -> 68A       -0.19261
     61A -> 69A        0.25060
     62A -> 67A       -0.19273
     62A -> 68A        0.19449
     63A -> 68A        0.13968
     64A -> 69A       -0.37608
     64A -> 70A        0.12094
     56B -> 65B        0.11019
     60B -> 66B       -0.12237
     60B -> 67B        0.23704
     60B -> 68B       -0.14190
     61B -> 66B        0.11038
     62B -> 67B       -0.10871
     63B -> 67B        0.51603
     63B -> 68B       -0.21681
     64B -> 67B       -0.13882
     64B -> 69B        0.24575

 Excited State  36:  2.946-A      6.1618 eV  201.22 nm  f=0.0064  <S**2>=1.920
     61A -> 67A        0.54739
     61A -> 68A       -0.14863
     61A -> 69A       -0.14246
     62A -> 67A       -0.34900
     63A -> 68A       -0.11328
     64A -> 67A       -0.49564
     64A -> 68A        0.33376
     64A -> 69A        0.22057
     60B -> 67B        0.13214
     61B -> 67B       -0.12555
     63B -> 68B        0.14465
     64B -> 68B        0.10213

 The electronic state is 2-A.
 Alpha  occ. eigenvalues --  -19.17647 -19.13721 -10.27841 -10.25416 -10.20010
 Alpha  occ. eigenvalues --  -10.19948 -10.19923 -10.19738 -10.19599 -10.19546
 Alpha  occ. eigenvalues --  -10.19522 -10.19110 -10.18927 -10.18875 -10.18835
 Alpha  occ. eigenvalues --  -10.18810 -10.18306 -10.18112  -1.06064  -1.03188
 Alpha  occ. eigenvalues --   -0.86056  -0.85404  -0.78219  -0.77116  -0.75127
 Alpha  occ. eigenvalues --   -0.74561  -0.72861  -0.72448  -0.64903  -0.62905
 Alpha  occ. eigenvalues --   -0.60705  -0.60120  -0.57439  -0.55147  -0.52046
 Alpha  occ. eigenvalues --   -0.51043  -0.50063  -0.46914  -0.46434  -0.46027
 Alpha  occ. eigenvalues --   -0.45881  -0.44448  -0.44299  -0.42865  -0.42673
 Alpha  occ. eigenvalues --   -0.42209  -0.41734  -0.41276  -0.38925  -0.38801
 Alpha  occ. eigenvalues --   -0.38251  -0.37454  -0.36936  -0.35784  -0.35521
 Alpha  occ. eigenvalues --   -0.34584  -0.34368  -0.33976  -0.32169  -0.27440
 Alpha  occ. eigenvalues --   -0.26104  -0.25694  -0.25482  -0.25056  -0.15970
 Alpha virt. eigenvalues --   -0.05626  -0.00919  -0.00078   0.01996   0.03948
 Alpha virt. eigenvalues --    0.08650   0.09899   0.11543   0.12465   0.13498
 Alpha virt. eigenvalues --    0.13656   0.14925   0.15186   0.15517   0.16015

  Beta  occ. eigenvalues --  -19.17394 -19.13619 -10.27810 -10.24532 -10.20020
  Beta  occ. eigenvalues --  -10.19928 -10.19925 -10.19885 -10.19581 -10.19561
  Beta  occ. eigenvalues --  -10.19524 -10.19005 -10.18986 -10.18846 -10.18608
  Beta  occ. eigenvalues --  -10.18568 -10.18354 -10.18112  -1.05381  -1.02962
  Beta  occ. eigenvalues --   -0.86010  -0.85116  -0.77587  -0.76949  -0.75095
  Beta  occ. eigenvalues --   -0.74307  -0.72744  -0.72190  -0.64081  -0.62812
  Beta  occ. eigenvalues --   -0.60679  -0.59959  -0.57138  -0.55094  -0.51805
  Beta  occ. eigenvalues --   -0.50971  -0.49232  -0.46377  -0.46267  -0.45776
  Beta  occ. eigenvalues --   -0.45535  -0.44427  -0.44212  -0.42701  -0.42571
  Beta  occ. eigenvalues --   -0.41960  -0.41578  -0.41010  -0.38754  -0.38435
  Beta  occ. eigenvalues --   -0.37745  -0.37270  -0.36377  -0.35663  -0.35313
  Beta  occ. eigenvalues --   -0.34433  -0.34140  -0.33614  -0.31492  -0.26550
  Beta  occ. eigenvalues --   -0.25756  -0.25421  -0.25026  -0.24577
  Beta virt. eigenvalues --   -0.08333  -0.04134  -0.00775   0.00454   0.03234
  Beta virt. eigenvalues --    0.05312   0.08808   0.09969   0.11672   0.12521
  Beta virt. eigenvalues --    0.13554   0.13842   0.14990   0.15592   0.15635

 Mulliken charges and spin densities:
               1          2
     1  C    0.377373   0.030640
     2  C    0.232560   0.575723
     3  O   -0.553125   0.038831
     4  C   -0.382554  -0.002365
     5  H    0.141537   0.000742
     6  H    0.140667   0.001732
     7  H    0.125093   0.000253
     8  C   -0.364649  -0.044146
     9  H    0.131073   0.002849
    10  H    0.128902   0.014407
    11  H    0.132931   0.033575
    12  C    0.069433  -0.015455
    13  C   -0.114349   0.026970
    14  C   -0.114284   0.021472
    15  C   -0.101441  -0.013310
    16  H    0.110034  -0.001246
    17  C   -0.106935  -0.013507
    18  H    0.109287  -0.000893
    19  C   -0.090498   0.029014
    20  H    0.107617   0.000467
    21  H    0.108429   0.000485
    22  H    0.109513  -0.001310
    23  C    0.100620  -0.154836
    24  C   -0.138553   0.204653
    25  C   -0.132497   0.199114
    26  C   -0.100348  -0.108289
    27  H    0.105628  -0.008937
    28  C   -0.108675  -0.107775
    29  H    0.096958  -0.008668
    30  C   -0.107012   0.225924
    31  H    0.099315   0.003869
    32  H    0.099652   0.003826
    33  H    0.098058  -0.010410
    34  O   -0.550422   0.068245
    35  H    0.340662   0.008356
 Sum of Mulliken charges =  -0.00000   1.00000

 Dipole moment (field-independent basis, Debye):
    X=             -0.7374    Y=              3.2287    Z=             -0.1886  Tot=              3.3172
 Quadrupole moment (field-independent basis, Debye-Ang):
   XX=           -104.9369   YY=           -102.8627   ZZ=           -100.0303
   XY=             -2.9007   XZ=             -7.8265   YZ=             -0.0157

 Normal termination of Gaussian 16 at Sat May 25 04:50:09 2019.
