 Gaussian 16, Revision B.01,
 Gaussian 16:  ES64L-G16RevB.01 20-Dec-2017

 ----------------------------------------------------------------------
 #p td=(50-50,nstates=36) ub3lyp/6-31g(d,p) scrf=(iefpcm,solvent=aceton
 itrile) guess=(mix,always) empiricaldispersion=gd3
 ----------------------------------------------------------------------

 -------------------
 Title Card Required
 -------------------
 Symbolic Z-matrix:
 Charge =  0 Multiplicity = 2

                         Standard orientation:
 ---------------------------------------------------------------------
 Center     Atomic      Atomic             Coordinates (Angstroms)
 Number     Number       Type             X           Y           Z
 ---------------------------------------------------------------------
      1          6           0       -0.895961   -1.395142   -0.867514
      2          6           0        0.728021   -1.242145    0.892962
      3          8           0       -1.294635   -2.501490   -0.442734
      4          6           0        0.093742   -1.375581   -2.019037
      5          1           0       -0.487140   -1.431317   -2.947604
      6          1           0        0.716551   -0.483513   -2.062885
      7          1           0        0.732764   -2.256093   -1.954319
      8          6           0       -0.238842   -1.177853    2.041243
      9          1           0       -0.722241   -0.206872    2.136406
     10          1           0       -1.017138   -1.933625    1.912253
     11          1           0        0.298582   -1.393690    2.973929
     12          6           0       -1.656586   -0.150141   -0.545582
     13          6           0       -2.841180   -0.263728    0.204153
     14          6           0       -1.241738    1.125704   -0.963886
     15          6           0       -3.585561    0.864571    0.534104
     16          1           0       -3.159496   -1.252092    0.516075
     17          6           0       -1.986705    2.256515   -0.630515
     18          1           0       -0.328307    1.246132   -1.533190
     19          6           0       -3.158385    2.130850    0.119462
     20          1           0       -4.499139    0.760740    1.111931
     21          1           0       -1.648989    3.236561   -0.953529
     22          1           0       -3.736615    3.012909    0.378008
     23          6           0        1.616820   -0.160513    0.551946
     24          6           0        2.754376   -0.392088   -0.264407
     25          6           0        1.368108    1.168745    0.977505
     26          6           0        3.591819    0.652602   -0.633983
     27          1           0        2.959787   -1.401767   -0.598833
     28          6           0        2.210670    2.207612    0.598988
     29          1           0        0.505968    1.388288    1.595273
     30          6           0        3.326965    1.960484   -0.208158
     31          1           0        4.457570    0.450173   -1.257841
     32          1           0        1.995808    3.217993    0.934120
     33          1           0        3.981818    2.775262   -0.501111
     34          8           0        1.176577   -2.492216    0.582284
     35          1           0        0.381308   -3.038783    0.411231
 ---------------------------------------------------------------------

 SCF Done:  E(UB3LYP) =  -770.419261600     A.U. after   19 cycles

 Excitation energies and oscillator strengths:

 Excited State   1:  2.114-A      2.5949 eV  477.79 nm  f=0.1348  <S**2>=0.867
     65A -> 66A        0.89888
     63B -> 65B        0.26263
     64B -> 65B       -0.27794
 This state for optimization and/or second-order correction.
 Total Energy, E(TD-HF/TD-DFT) =  -770.323898989
 Copying the excited state density for this state as the 1-particle RhoCI density.

 Excited State   2:  2.262-A      2.7165 eV  456.41 nm  f=0.0367  <S**2>=1.029
     65A -> 66A       -0.38831
     63B -> 65B        0.66603
     63B -> 66B       -0.15487
     64B -> 65B       -0.57166
     64B -> 66B        0.11824

 Excited State   3:  2.383-A      3.0854 eV  401.85 nm  f=0.0379  <S**2>=1.170
     60A -> 66A       -0.12929
     62A -> 66A       -0.19270
     65A -> 67A        0.13730
     65A -> 68A        0.11779
     65A -> 70A        0.11092
     60B -> 66B       -0.13535
     62B -> 65B       -0.41967
     62B -> 66B        0.10697
     63B -> 65B        0.53303
     64B -> 65B        0.57674

 Excited State   4:  2.172-A      3.1803 eV  389.86 nm  f=0.0228  <S**2>=0.929
     65A -> 67A        0.34938
     65A -> 68A        0.26453
     61B -> 65B        0.27624
     61B -> 66B        0.12538
     62B -> 65B        0.71691
     63B -> 65B        0.21891
     64B -> 65B        0.28301

 Excited State   5:  2.485-A      3.2520 eV  381.26 nm  f=0.0104  <S**2>=1.294
     61A -> 67A       -0.10080
     62A -> 66A       -0.27629
     65A -> 69A        0.39463
     60B -> 65B        0.44278
     61B -> 65B        0.59380
     61B -> 67B        0.10930
     62B -> 65B       -0.13508
     62B -> 66B        0.22039
     64B -> 65B       -0.15342

 Excited State   6:  2.271-A      3.4614 eV  358.19 nm  f=0.0041  <S**2>=1.040
     65A -> 67A        0.61725
     65A -> 68A        0.12712
     65A -> 69A       -0.18758
     60B -> 65B       -0.42385
     61B -> 65B        0.29933
     62B -> 65B       -0.30802
     63B -> 65B       -0.21492
     64B -> 65B       -0.26872
     64B -> 66B        0.12450

 Excited State   7:  2.227-A      3.6710 eV  337.74 nm  f=0.0043  <S**2>=0.990
     63A -> 66A        0.13004
     64A -> 66A       -0.17010
     65A -> 67A       -0.59199
     65A -> 68A       -0.15833
     65A -> 69A       -0.10805
     60B -> 65B       -0.39546
     61B -> 65B        0.59727

 Excited State   8:  2.079-A      3.8753 eV  319.94 nm  f=0.0030  <S**2>=0.830
     65A -> 67A       -0.31138
     65A -> 68A        0.91463
     62B -> 65B       -0.10273
     64B -> 65B       -0.13492

 Excited State   9:  2.921-A      4.0315 eV  307.54 nm  f=0.0014  <S**2>=1.883
     63A -> 66A        0.52824
     63A -> 70A        0.10886
     64A -> 66A        0.71242
     64A -> 70A        0.10316
     65A -> 69A       -0.16270
     60B -> 65B       -0.13972
     62B -> 65B        0.14709
     64B -> 65B       -0.12316
     64B -> 66B       -0.11216

 Excited State  10:  2.999-A      4.0555 eV  305.72 nm  f=0.0129  <S**2>=1.999
     61A -> 67A        0.12376
     61A -> 68A       -0.16162
     62A -> 66A        0.35710
     62A -> 67A       -0.14168
     62A -> 68A        0.11081
     63A -> 66A        0.32756
     63A -> 67A        0.20169
     63A -> 68A       -0.13049
     64A -> 66A        0.18349
     64A -> 67A       -0.17349
     65A -> 69A        0.19078
     60B -> 65B        0.22923
     60B -> 66B        0.13662
     60B -> 67B        0.11072
     61B -> 67B       -0.20255
     61B -> 68B        0.15492
     62B -> 65B       -0.32117
     62B -> 66B       -0.19834
     62B -> 67B        0.15339
     62B -> 69B       -0.11571
     63B -> 65B        0.18666
     63B -> 66B        0.14431
     63B -> 67B        0.11223
     64B -> 67B        0.16604

 Excited State  11:  2.742-A      4.2590 eV  291.11 nm  f=0.0864  <S**2>=1.630
     61A -> 67A        0.26856
     61A -> 68A        0.18816
     63A -> 66A       -0.11363
     63A -> 67A       -0.12788
     63A -> 68A       -0.16809
     64A -> 67A        0.13215
     64A -> 68A        0.15749
     65A -> 69A       -0.45665
     59B -> 65B       -0.14723
     60B -> 65B        0.49641
     61B -> 65B        0.22664
     61B -> 67B       -0.15445
     61B -> 68B       -0.13290
     62B -> 66B       -0.18978
     62B -> 68B       -0.14689
     63B -> 68B       -0.12805
     64B -> 67B       -0.11957
     64B -> 68B       -0.18312

 Excited State  12:  2.879-A      4.3252 eV  286.65 nm  f=0.0517  <S**2>=1.822
     61A -> 66A        0.15122
     61A -> 67A        0.18928
     61A -> 68A        0.24270
     62A -> 66A        0.12934
     63A -> 66A        0.19733
     63A -> 67A       -0.20310
     63A -> 68A       -0.10538
     64A -> 66A       -0.10683
     64A -> 67A        0.19081
     64A -> 68A        0.11043
     65A -> 69A        0.61583
     59B -> 65B        0.10353
     60B -> 65B       -0.10574
     61B -> 68B       -0.22083
     62B -> 67B       -0.18627
     62B -> 68B       -0.14230
     63B -> 67B       -0.14161
     63B -> 68B       -0.14640
     64B -> 67B       -0.21175
     64B -> 68B       -0.20515

 Excited State  13:  3.083-A      4.4426 eV  279.08 nm  f=0.0142  <S**2>=2.126
     61A -> 66A        0.25485
     62A -> 66A       -0.34212
     63A -> 66A        0.52651
     64A -> 66A       -0.37749
     59B -> 65B       -0.24708
     60B -> 65B        0.22208
     61B -> 65B       -0.17178
     61B -> 66B       -0.20406
     62B -> 66B        0.15851
     62B -> 68B        0.10410
     63B -> 66B        0.13673
     64B -> 66B        0.23213

 Excited State  14:  2.446-A      4.5625 eV  271.74 nm  f=0.0298  <S**2>=1.246
     61A -> 67A        0.12409
     62A -> 66A       -0.34818
     63A -> 68A       -0.10597
     65A -> 69A       -0.13381
     59B -> 65B        0.81723
     61B -> 67B       -0.14555
     62B -> 66B        0.12941

 Excited State  15:  3.109-A      4.6086 eV  269.03 nm  f=0.0199  <S**2>=2.166
     61A -> 67A       -0.20443
     62A -> 66A        0.32806
     62A -> 67A        0.12657
     62A -> 68A       -0.11168
     63A -> 66A        0.15658
     63A -> 67A       -0.16429
     63A -> 68A        0.17778
     64A -> 66A       -0.18127
     64A -> 67A        0.13084
     64A -> 68A       -0.15003
     65A -> 69A       -0.16561
     65A -> 70A       -0.10232
     59B -> 65B        0.41290
     60B -> 65B        0.19761
     60B -> 67B       -0.13138
     61B -> 66B        0.10048
     61B -> 67B        0.30819
     62B -> 66B       -0.24776
     62B -> 67B       -0.13999
     62B -> 68B        0.14402
     63B -> 66B        0.16772
     64B -> 66B        0.18715
     64B -> 67B       -0.14441
     64B -> 68B        0.13659

 Excited State  16:  2.536-A      4.7502 eV  261.01 nm  f=0.0032  <S**2>=1.358
     64A -> 66A       -0.12715
     63B -> 65B        0.17072
     63B -> 66B        0.70773
     63B -> 70B       -0.10452
     64B -> 65B       -0.11229
     64B -> 66B       -0.63635

 Excited State  17:  3.363-A      4.8556 eV  255.34 nm  f=0.0007  <S**2>=2.577
     61A -> 66A        0.70416
     61A -> 69A        0.12379
     63A -> 66A       -0.20166
     63A -> 69A       -0.10974
     64A -> 66A        0.17174
     58B -> 65B       -0.14816
     60B -> 68B       -0.10551
     61B -> 66B       -0.33441
     62B -> 66B       -0.25933
     62B -> 67B       -0.10124
     63B -> 66B       -0.15639
     64B -> 66B       -0.10902
     64B -> 67B        0.11245

 Excited State  18:  2.799-A      4.9472 eV  250.62 nm  f=0.0095  <S**2>=1.709
     60A -> 66A       -0.30221
     62A -> 66A        0.16323
     62A -> 69A        0.10180
     65A -> 70A        0.60201
     58B -> 65B       -0.24496
     59B -> 65B        0.12842
     60B -> 65B        0.13977
     60B -> 66B       -0.38805
     61B -> 66B       -0.23423
     62B -> 67B        0.13999
     63B -> 66B        0.10961
     64B -> 66B        0.16551

 Excited State  19:  2.654-A      5.0063 eV  247.66 nm  f=0.0190  <S**2>=1.510
     56A -> 66A        0.14073
     58A -> 66A        0.24706
     60A -> 66A       -0.11162
     61A -> 66A        0.12371
     62A -> 70A       -0.11277
     65A -> 70A        0.21086
     57B -> 65B        0.10966
     58B -> 65B        0.76649
     58B -> 66B       -0.15265
     62B -> 65B        0.10014

 Excited State  20:  2.282-A      5.0482 eV  245.60 nm  f=0.0268  <S**2>=1.052
     60A -> 67A        0.11544
     62A -> 67A        0.24705
     62A -> 68A       -0.21881
     63A -> 66A       -0.34082
     64A -> 66A        0.27355
     64A -> 68A        0.10051
     60B -> 66B        0.13076
     61B -> 66B       -0.14198
     62B -> 66B        0.37509
     63B -> 66B        0.43985
     64B -> 66B        0.47669

 Excited State  21:  3.196-A      5.1425 eV  241.10 nm  f=0.0057  <S**2>=2.304
     60A -> 66A        0.15810
     60A -> 68A       -0.11465
     61A -> 66A       -0.25648
     62A -> 67A        0.41024
     62A -> 68A       -0.25137
     64A -> 67A       -0.15862
     64A -> 68A        0.13339
     65A -> 70A        0.34787
     60B -> 67B        0.18194
     61B -> 67B        0.10164
     62B -> 67B       -0.40810
     62B -> 68B        0.17578
     63B -> 66B       -0.17384
     63B -> 67B        0.20025
     63B -> 68B       -0.11704
     64B -> 66B       -0.17387
     64B -> 67B        0.19603
     64B -> 68B       -0.12576

 Excited State  22:  2.980-A      5.2045 eV  238.23 nm  f=0.0153  <S**2>=1.970
     60A -> 66A        0.51860
     60A -> 69A        0.12753
     62A -> 67A       -0.16437
     62A -> 68A        0.13072
     64A -> 67A        0.14813
     65A -> 70A        0.54090
     60B -> 66B        0.31599
     62B -> 66B        0.20154
     62B -> 67B        0.16399
     62B -> 68B       -0.11375
     63B -> 67B       -0.14016
     64B -> 67B       -0.15522

 Excited State  23:  2.192-A      5.2700 eV  235.26 nm  f=0.0257  <S**2>=0.952
     61A -> 66A        0.38110
     62A -> 66A       -0.12813
     62A -> 67A       -0.12268
     64A -> 67A        0.12250
     65A -> 70A        0.23026
     60B -> 66B       -0.23178
     60B -> 68B       -0.10548
     61B -> 66B        0.70310
     62B -> 67B       -0.20870
     63B -> 66B        0.13783
     63B -> 67B        0.10665
     64B -> 66B        0.15088
     64B -> 67B        0.15716

 Excited State  24:  2.091-A      5.3691 eV  230.92 nm  f=0.1757  <S**2>=0.843
     60A -> 66A       -0.16931
     61A -> 66A        0.24570
     62A -> 66A        0.50725
     64A -> 66A       -0.15584
     65A -> 69A       -0.19092
     62B -> 66B        0.63395
     63B -> 66B       -0.20827
     64B -> 66B       -0.21137

 Excited State  25:  3.401-A      5.4895 eV  225.86 nm  f=0.0045  <S**2>=2.642
     60A -> 67A        0.34242
     60A -> 68A        0.23936
     61A -> 66A        0.14134
     61A -> 67A       -0.19390
     61A -> 68A       -0.16228
     61A -> 69A       -0.11660
     62A -> 67A       -0.11150
     62A -> 68A       -0.21258
     64A -> 67A        0.15552
     64A -> 68A        0.17526
     60B -> 67B        0.33340
     60B -> 68B        0.27114
     61B -> 67B        0.24188
     61B -> 68B        0.23645
     62B -> 67B        0.19777
     62B -> 68B        0.30179
     63B -> 68B       -0.14221
     64B -> 67B       -0.17403
     64B -> 68B       -0.24141

 Excited State  26:  2.077-A      5.6028 eV  221.29 nm  f=0.0005  <S**2>=0.828
     56B -> 65B       -0.22790
     57B -> 65B        0.92585
     57B -> 66B        0.14560
     58B -> 65B       -0.18776

 Excited State  27:  2.396-A      5.6730 eV  218.55 nm  f=0.0272  <S**2>=1.185
     60A -> 66A        0.53933
     62A -> 67A       -0.11839
     62A -> 69A        0.10225
     63A -> 67A        0.10334
     65A -> 70A       -0.14633
     56B -> 65B        0.12314
     60B -> 66B       -0.47024
     61B -> 66B       -0.15114
     62B -> 67B       -0.10867
     63B -> 67B        0.39267
     63B -> 68B       -0.11917
     64B -> 67B       -0.35786

 Excited State  28:  2.968-A      5.6894 eV  217.92 nm  f=0.0165  <S**2>=1.952
     60A -> 66A       -0.35988
     62A -> 67A        0.13498
     63A -> 67A        0.14015
     64A -> 67A        0.20081
     65A -> 70A        0.10985
     56B -> 65B        0.13317
     60B -> 66B        0.30007
     61B -> 66B        0.11297
     63B -> 67B        0.57790
     63B -> 68B       -0.13256
     64B -> 67B       -0.44374
     64B -> 68B        0.17419

 Excited State  29:  2.418-A      5.7321 eV  216.30 nm  f=0.0099  <S**2>=1.212
     63A -> 67A        0.56190
     63A -> 68A       -0.22171
     64A -> 67A        0.65425
     64A -> 68A       -0.25796
     56B -> 65B        0.11190
     63B -> 67B       -0.16333
     64B -> 67B        0.22057

 Excited State  30:  2.319-A      5.7712 eV  214.83 nm  f=0.0005  <S**2>=1.094
     63A -> 67A       -0.11491
     64A -> 67A       -0.10631
     55B -> 65B       -0.10059
     56B -> 65B        0.88361
     56B -> 66B       -0.16521
     57B -> 65B        0.25180
     58B -> 65B        0.13649
     63B -> 67B       -0.11581

 Excited State  31:  2.304-A      5.8786 eV  210.91 nm  f=0.0018  <S**2>=1.078
     58A -> 66A        0.14696
     60A -> 69A       -0.13470
     53B -> 65B        0.16339
     54B -> 65B        0.37479
     54B -> 66B        0.10537
     55B -> 65B        0.73296
     56B -> 65B        0.17559
     58B -> 65B       -0.20813
     58B -> 66B       -0.14203
     60B -> 69B        0.12247

 Excited State  32:  2.538-A      5.9550 eV  208.20 nm  f=0.0696  <S**2>=1.361
     60A -> 66A       -0.13393
     60A -> 67A        0.13590
     61A -> 66A       -0.20800
     61A -> 67A       -0.17511
     61A -> 68A       -0.15553
     61A -> 69A        0.18473
     61A -> 70A       -0.11861
     62A -> 67A       -0.35094
     63A -> 67A       -0.28514
     63A -> 69A       -0.35396
     64A -> 67A        0.26667
     64A -> 68A        0.17840
     64A -> 69A        0.41913
     61B -> 66B       -0.10959
     62B -> 67B       -0.16972
     63B -> 67B        0.22355
     64B -> 67B        0.21013

 Excited State  33:  2.677-A      6.0088 eV  206.34 nm  f=0.0001  <S**2>=1.542
     58A -> 66A       -0.13884
     59A -> 66A       -0.11835
     60A -> 69A        0.15137
     62A -> 69A        0.14586
     62A -> 70A        0.15498
     63A -> 69A        0.11682
     51B -> 65B        0.10838
     53B -> 65B       -0.28428
     54B -> 65B       -0.41696
     54B -> 66B        0.10432
     55B -> 65B        0.55454
     55B -> 66B       -0.12054
     58B -> 65B        0.19969
     58B -> 66B        0.11241
     59B -> 66B        0.12142
     60B -> 69B       -0.14043
     61B -> 69B       -0.11955
     62B -> 69B        0.10152
     62B -> 70B        0.10960
     63B -> 69B       -0.22445

 Excited State  34:  2.960-A      6.0256 eV  205.76 nm  f=0.0084  <S**2>=1.940
     60A -> 66A        0.12976
     60A -> 69A       -0.25302
     60A -> 70A        0.12388
     61A -> 69A        0.22398
     62A -> 69A        0.28761
     63A -> 67A       -0.14460
     64A -> 67A        0.12515
     64A -> 69A       -0.24140
     65A -> 71A       -0.10596
     53B -> 65B        0.28932
     54B -> 65B       -0.31448
     60B -> 66B        0.35545
     60B -> 69B        0.15308
     60B -> 70B       -0.12667
     61B -> 69B        0.15012
     62B -> 67B        0.13444
     62B -> 69B        0.23333
     63B -> 67B        0.17693
     63B -> 69B       -0.12177
     64B -> 67B        0.19315
     64B -> 69B       -0.18656

 Excited State  35:  2.616-A      6.0529 eV  204.83 nm  f=0.0322  <S**2>=1.460
     62A -> 69A        0.21696
     62A -> 70A        0.13490
     63A -> 67A       -0.10546
     64A -> 67A        0.10274
     64A -> 69A       -0.27952
     65A -> 71A        0.13135
     53B -> 65B       -0.24638
     54B -> 65B        0.62280
     58B -> 65B        0.12603
     60B -> 69B       -0.10446
     62B -> 67B        0.11521
     63B -> 67B        0.20782
     64B -> 67B        0.22240
     64B -> 69B       -0.21414

 Excited State  36:  2.586-A      6.1026 eV  203.17 nm  f=0.0869  <S**2>=1.421
     61A -> 67A        0.12899
     61A -> 69A       -0.20857
     62A -> 67A        0.10690
     62A -> 68A        0.10221
     62A -> 69A       -0.17605
     63A -> 67A       -0.28703
     63A -> 69A        0.11390
     64A -> 68A       -0.25827
     65A -> 71A       -0.20844
     52B -> 65B       -0.14726
     54B -> 65B       -0.13002
     58B -> 65B       -0.10723
     60B -> 66B       -0.14205
     60B -> 68B        0.11169
     61B -> 66B       -0.13018
     61B -> 67B        0.25833
     61B -> 68B       -0.13032
     62B -> 67B        0.25564
     62B -> 69B       -0.28550
     63B -> 67B        0.29701
     63B -> 68B       -0.10187
     64B -> 67B        0.30782
     64B -> 68B       -0.18131
     64B -> 69B        0.12514

 The electronic state is 2-A.
 Alpha  occ. eigenvalues --  -19.17560 -19.12818 -10.27284 -10.26267 -10.20117
 Alpha  occ. eigenvalues --  -10.19820 -10.19731 -10.19712 -10.19529 -10.19419
 Alpha  occ. eigenvalues --  -10.19413 -10.19392 -10.19305 -10.19255 -10.19193
 Alpha  occ. eigenvalues --  -10.19166 -10.18321 -10.17870  -1.06315  -1.02179
 Alpha  occ. eigenvalues --   -0.86026  -0.85684  -0.78553  -0.76736  -0.74955
 Alpha  occ. eigenvalues --   -0.74904  -0.72965  -0.72294  -0.64976  -0.62673
 Alpha  occ. eigenvalues --   -0.60713  -0.60315  -0.57635  -0.54987  -0.52302
 Alpha  occ. eigenvalues --   -0.51067  -0.50423  -0.47391  -0.46361  -0.45956
 Alpha  occ. eigenvalues --   -0.45583  -0.44587  -0.44317  -0.43074  -0.42452
 Alpha  occ. eigenvalues --   -0.42298  -0.41520  -0.40908  -0.39005  -0.38614
 Alpha  occ. eigenvalues --   -0.38284  -0.37295  -0.37040  -0.35863  -0.35383
 Alpha  occ. eigenvalues --   -0.34367  -0.34216  -0.33884  -0.31861  -0.27701
 Alpha  occ. eigenvalues --   -0.26176  -0.25550  -0.25230  -0.24920  -0.17217
 Alpha virt. eigenvalues --   -0.04902  -0.01103  -0.00028   0.01065   0.04636
 Alpha virt. eigenvalues --    0.08714   0.09826   0.11852   0.12413   0.13370
 Alpha virt. eigenvalues --    0.13689   0.14699   0.15070   0.15170   0.16144

  Beta  occ. eigenvalues --  -19.17327 -19.12550 -10.27239 -10.25432 -10.20282
  Beta  occ. eigenvalues --  -10.19838 -10.19686 -10.19677 -10.19433 -10.19407
  Beta  occ. eigenvalues --  -10.19342 -10.19297 -10.19284 -10.19270 -10.19164
  Beta  occ. eigenvalues --  -10.19027 -10.18347 -10.17864  -1.05642  -1.01685
  Beta  occ. eigenvalues --   -0.85878  -0.85528  -0.77938  -0.76575  -0.74904
  Beta  occ. eigenvalues --   -0.74703  -0.72709  -0.72119  -0.64266  -0.62535
  Beta  occ. eigenvalues --   -0.60632  -0.60222  -0.57353  -0.54863  -0.52068
  Beta  occ. eigenvalues --   -0.50761  -0.49584  -0.46607  -0.46134  -0.45709
  Beta  occ. eigenvalues --   -0.45459  -0.44502  -0.44273  -0.42876  -0.42384
  Beta  occ. eigenvalues --   -0.42212  -0.41187  -0.40670  -0.38606  -0.38383
  Beta  occ. eigenvalues --   -0.37981  -0.37014  -0.36571  -0.35616  -0.35261
  Beta  occ. eigenvalues --   -0.34226  -0.34069  -0.33171  -0.31073  -0.26714
  Beta  occ. eigenvalues --   -0.25673  -0.25119  -0.24907  -0.24633
  Beta virt. eigenvalues --   -0.09626  -0.03344  -0.00874   0.00377   0.02305
  Beta virt. eigenvalues --    0.06235   0.08849   0.09886   0.11990   0.12467
  Beta virt. eigenvalues --    0.13441   0.13829   0.14884   0.15292   0.15499

 Mulliken charges and spin densities:
               1          2
     1  C    0.342167   0.049072
     2  C    0.218756   0.534289
     3  O   -0.577047   0.102202
     4  C   -0.362366  -0.001260
     5  H    0.137387   0.004391
     6  H    0.127699   0.000261
     7  H    0.125084   0.001107
     8  C   -0.350735  -0.031270
     9  H    0.131578   0.001864
    10  H    0.128952   0.009582
    11  H    0.133002   0.030042
    12  C    0.080720  -0.023712
    13  C   -0.115834   0.034562
    14  C   -0.120354   0.029951
    15  C   -0.101471  -0.016957
    16  H    0.107499  -0.001646
    17  C   -0.108523  -0.017546
    18  H    0.107307  -0.001242
    19  C   -0.092081   0.036219
    20  H    0.105681   0.000623
    21  H    0.106774   0.000617
    22  H    0.107479  -0.001620
    23  C    0.102686  -0.140019
    24  C   -0.124048   0.170953
    25  C   -0.126327   0.166880
    26  C   -0.100890  -0.090549
    27  H    0.109813  -0.007392
    28  C   -0.108354  -0.090887
    29  H    0.102867  -0.007192
    30  C   -0.099070   0.184432
    31  H    0.103552   0.003249
    32  H    0.104325   0.003219
    33  H    0.103671  -0.008388
    34  O   -0.541486   0.066556
    35  H    0.341588   0.009609
 Sum of Mulliken charges =  -0.00000   1.00000

 Dipole moment (field-independent basis, Debye):
    X=              0.1165    Y=              3.6757    Z=              0.1400  Tot=              3.6803
 Quadrupole moment (field-independent basis, Debye-Ang):
   XX=           -101.7032   YY=           -103.5469   ZZ=           -101.9305
   XY=             -2.3162   XZ=             -7.7970   YZ=             -0.5534

 Normal termination of Gaussian 16 at Sat May 25 04:49:36 2019.
