 Gaussian 16, Revision B.01,
 Gaussian 16:  ES64L-G16RevB.01 20-Dec-2017

 ----------------------------------------------------------------------
 #p td=(50-50,nstates=18) ub3lyp/6-31g(d,p) scrf=(iefpcm,solvent=aceton
 itrile) guess=(mix,always) empiricaldispersion=gd3
 ----------------------------------------------------------------------

 -------------------
 Title Card Required
 -------------------
 Symbolic Z-matrix:
 Charge =  0 Multiplicity = 2

                         Standard orientation:
 ---------------------------------------------------------------------
 Center     Atomic      Atomic             Coordinates (Angstroms)
 Number     Number       Type             X           Y           Z
 ---------------------------------------------------------------------
      1          6           0       -0.807570   -1.369565   -0.796248
      2          6           0        0.701514   -1.244545    0.799696
      3          8           0       -1.225654   -2.502560   -0.429672
      4          6           0        0.128009   -1.323527   -1.999759
      5          1           0       -0.498150   -1.424310   -2.893863
      6          1           0        0.706160   -0.405383   -2.089912
      7          1           0        0.809781   -2.172875   -1.956385
      8          6           0       -0.203796   -1.200468    2.006566
      9          1           0       -0.730387   -0.253597    2.111145
     10          1           0       -0.944166   -1.999409    1.940289
     11          1           0        0.408639   -1.362111    2.902017
     12          6           0       -1.634828   -0.151931   -0.501636
     13          6           0       -2.830361   -0.312099    0.220282
     14          6           0       -1.272542    1.137251   -0.925956
     15          6           0       -3.635849    0.783238    0.518426
     16          1           0       -3.109251   -1.311271    0.535449
     17          6           0       -2.079096    2.235452   -0.626490
     18          1           0       -0.353277    1.294448   -1.476692
     19          6           0       -3.260922    2.063676    0.097655
     20          1           0       -4.557323    0.641660    1.075554
     21          1           0       -1.781603    3.226092   -0.957042
     22          1           0       -3.887087    2.919874    0.330331
     23          6           0        1.603256   -0.141886    0.501271
     24          6           0        2.764558   -0.357403   -0.278277
     25          6           0        1.334810    1.172940    0.946282
     26          6           0        3.615230    0.695177   -0.594903
     27          1           0        2.982758   -1.359948   -0.625332
     28          6           0        2.188764    2.222111    0.621861
     29          1           0        0.449907    1.376983    1.536173
     30          6           0        3.332290    1.991757   -0.149714
     31          1           0        4.503095    0.507221   -1.191200
     32          1           0        1.961253    3.224551    0.971447
     33          1           0        3.996110    2.813182   -0.401179
     34          8           0        1.217989   -2.479850    0.529938
     35          1           0        0.444072   -3.056890    0.352739
 ---------------------------------------------------------------------

 SCF Done:  E(UB3LYP) =  -770.410537908     A.U. after   19 cycles

 Excitation energies and oscillator strengths:

 Excited State   1:  2.127-A      2.1432 eV  578.50 nm  f=0.0010  <S**2>=0.881
     63B -> 65B       -0.24856
     64B -> 65B        0.94226
     64B -> 66B       -0.13406
 This state for optimization and/or second-order correction.
 Total Energy, E(TD-HF/TD-DFT) =  -770.331777268
 Copying the excited state density for this state as the 1-particle RhoCI density.

 Excited State   2:  2.239-A      2.8178 eV  440.00 nm  f=0.0190  <S**2>=1.004
     60A -> 66A       -0.10078
     62A -> 66A        0.13307
     65A -> 66A       -0.10497
     62B -> 65B        0.23639
     63B -> 65B        0.88689
     64B -> 65B        0.21975

 Excited State   3:  2.140-A      2.9759 eV  416.62 nm  f=0.0250  <S**2>=0.895
     62A -> 66A        0.11108
     65A -> 66A        0.24949
     65A -> 68A        0.10023
     60B -> 65B        0.20802
     62B -> 65B        0.87854
     63B -> 65B       -0.19078

 Excited State   4:  2.156-A      2.9928 eV  414.28 nm  f=0.0494  <S**2>=0.912
     65A -> 66A        0.66977
     65A -> 69A        0.18458
     60B -> 65B        0.27662
     61B -> 65B       -0.52806
     62B -> 65B       -0.21537
     63B -> 65B        0.18181

 Excited State   5:  2.140-A      3.1746 eV  390.55 nm  f=0.1266  <S**2>=0.895
     62A -> 66A       -0.10675
     65A -> 66A        0.57277
     65A -> 67A       -0.13122
     65A -> 69A       -0.12553
     61B -> 65B        0.73485
     62B -> 65B       -0.14511

 Excited State   6:  2.303-A      3.3420 eV  370.99 nm  f=0.0570  <S**2>=1.076
     62A -> 66A        0.12801
     63A -> 66A        0.12096
     64A -> 66A        0.13387
     65A -> 66A       -0.26311
     65A -> 67A       -0.16129
     65A -> 69A        0.26008
     60B -> 65B        0.75828
     61B -> 65B        0.27521
     62B -> 65B       -0.20941
     63B -> 66B       -0.16584

 Excited State   7:  2.152-A      3.8350 eV  323.30 nm  f=0.0038  <S**2>=0.907
     65A -> 67A        0.91800
     65A -> 68A       -0.18628
     61B -> 65B        0.21937

 Excited State   8:  3.140-A      3.9663 eV  312.59 nm  f=0.0401  <S**2>=2.216
     61A -> 67A        0.14463
     61A -> 68A        0.11650
     62A -> 66A       -0.30750
     62A -> 67A        0.12826
     62A -> 68A        0.14358
     62A -> 69A        0.14197
     63A -> 67A       -0.21566
     63A -> 68A       -0.27126
     64A -> 66A       -0.17427
     65A -> 66A       -0.17476
     65A -> 67A        0.13486
     60B -> 65B        0.34556
     60B -> 67B        0.11519
     61B -> 67B        0.15817
     61B -> 68B       -0.12500
     62B -> 65B        0.15429
     62B -> 66B        0.18962
     62B -> 67B       -0.23657
     62B -> 68B        0.20070
     62B -> 69B       -0.10881
     63B -> 65B        0.17486
     63B -> 66B        0.31048
     63B -> 67B        0.10554
     63B -> 68B       -0.11831
     63B -> 69B       -0.14068
     64B -> 66B        0.12974

 Excited State   9:  2.133-A      4.1165 eV  301.19 nm  f=0.0315  <S**2>=0.887
     65A -> 66A       -0.11656
     65A -> 69A        0.18853
     58B -> 65B       -0.11575
     59B -> 65B        0.91352
     60B -> 65B       -0.13084

 Excited State  10:  3.065-A      4.1980 eV  295.34 nm  f=0.0330  <S**2>=2.098
     60A -> 66A       -0.12220
     61A -> 67A        0.31419
     61A -> 68A       -0.25931
     63A -> 67A        0.30175
     64A -> 67A        0.14292
     65A -> 68A       -0.19737
     65A -> 69A       -0.26824
     59B -> 65B        0.30589
     60B -> 65B        0.28188
     60B -> 66B       -0.16042
     60B -> 68B        0.11177
     61B -> 65B       -0.12215
     61B -> 66B        0.11012
     61B -> 67B        0.21141
     61B -> 68B        0.25408
     62B -> 67B        0.22894
     62B -> 68B        0.11981
     63B -> 67B       -0.20803
     63B -> 68B       -0.10195

 Excited State  11:  2.218-A      4.2079 eV  294.64 nm  f=0.0063  <S**2>=0.979
     65A -> 67A        0.20222
     65A -> 68A        0.91216
     65A -> 69A       -0.11591
     61B -> 66B        0.11555
     62B -> 65B       -0.10107
     62B -> 67B        0.11554

 Excited State  12:  2.975-A      4.3181 eV  287.13 nm  f=0.0039  <S**2>=1.963
     62A -> 66A       -0.20139
     63A -> 66A       -0.25969
     64A -> 66A        0.86435
     64A -> 70A        0.14231
     65A -> 69A       -0.25999
     64B -> 66B       -0.14689

 Excited State  13:  2.544-A      4.4347 eV  279.58 nm  f=0.0867  <S**2>=1.368
     61A -> 67A        0.21239
     61A -> 68A       -0.11483
     62A -> 66A       -0.20487
     63A -> 66A       -0.22652
     63A -> 67A        0.10515
     63A -> 68A       -0.12534
     64A -> 66A        0.12468
     65A -> 69A        0.75672
     58B -> 65B       -0.12395
     60B -> 65B       -0.14435
     61B -> 67B        0.21181
     61B -> 68B        0.13858
     62B -> 67B        0.10649
     62B -> 68B        0.14412
     63B -> 68B       -0.12276

 Excited State  14:  3.151-A      4.5477 eV  272.63 nm  f=0.0116  <S**2>=2.232
     61A -> 66A       -0.14728
     61A -> 69A        0.10457
     62A -> 66A       -0.27767
     63A -> 66A        0.64674
     63A -> 69A       -0.11028
     64A -> 66A        0.13061
     65A -> 68A        0.12236
     58B -> 65B       -0.35975
     61B -> 66B       -0.10956
     62B -> 66B        0.33949
     63B -> 66B       -0.15806
     63B -> 67B       -0.13598

 Excited State  15:  2.487-A      4.6090 eV  269.00 nm  f=0.0189  <S**2>=1.296
     58A -> 66A        0.11811
     63A -> 66A        0.27203
     65A -> 69A        0.16707
     58B -> 65B        0.79987
     60B -> 65B       -0.14114
     61B -> 67B        0.10435
     62B -> 67B       -0.11412
     62B -> 68B        0.12631
     63B -> 66B       -0.19597

 Excited State  16:  3.343-A      4.6483 eV  266.73 nm  f=0.0027  <S**2>=2.543
     61A -> 67A        0.18127
     62A -> 66A        0.48411
     62A -> 67A        0.11574
     62A -> 68A        0.11952
     62A -> 69A       -0.13488
     63A -> 67A       -0.22503
     63A -> 68A       -0.29320
     58B -> 65B       -0.25148
     60B -> 67B        0.11592
     61B -> 67B        0.22160
     62B -> 66B       -0.22039
     62B -> 67B       -0.24284
     62B -> 68B        0.24454
     63B -> 66B       -0.27563
     63B -> 67B        0.11916
     63B -> 68B       -0.12678
     64B -> 66B       -0.13613

 Excited State  17:  2.543-A      4.8288 eV  256.76 nm  f=0.0088  <S**2>=1.367
     64A -> 66A        0.18033
     63B -> 66B       -0.29470
     64B -> 65B        0.13144
     64B -> 66B        0.90909
     64B -> 70B       -0.11462

 Excited State  18:  3.378-A      4.9352 eV  251.23 nm  f=0.0007  <S**2>=2.603
     61A -> 66A        0.66313
     61A -> 69A        0.20118
     62A -> 67A       -0.10626
     63A -> 66A        0.20383
     63A -> 69A        0.19805
     65A -> 68A       -0.10950
     60B -> 68B       -0.11934
     61B -> 66B        0.40402
     61B -> 69B        0.13570
     62B -> 66B        0.20450
     62B -> 69B        0.11982
     63B -> 67B        0.18831
     63B -> 69B       -0.10418

 The electronic state is 2-A.
 Alpha  occ. eigenvalues --  -19.17525 -19.12277 -10.27110 -10.26803 -10.20423
 Alpha  occ. eigenvalues --  -10.19842 -10.19784 -10.19654 -10.19573 -10.19556
 Alpha  occ. eigenvalues --  -10.19503 -10.19457 -10.19423 -10.19298 -10.19264
 Alpha  occ. eigenvalues --  -10.19084 -10.18368 -10.17710  -1.06499  -1.01377
 Alpha  occ. eigenvalues --   -0.86277  -0.85606  -0.78834  -0.76463  -0.75183
 Alpha  occ. eigenvalues --   -0.74784  -0.73096  -0.72101  -0.65051  -0.62437
 Alpha  occ. eigenvalues --   -0.60911  -0.60264  -0.57811  -0.54932  -0.52455
 Alpha  occ. eigenvalues --   -0.51555  -0.50312  -0.47713  -0.46432  -0.45731
 Alpha  occ. eigenvalues --   -0.45357  -0.44779  -0.44199  -0.43254  -0.42536
 Alpha  occ. eigenvalues --   -0.42242  -0.41140  -0.40778  -0.38886  -0.38666
 Alpha  occ. eigenvalues --   -0.38229  -0.37300  -0.36962  -0.35990  -0.35201
 Alpha  occ. eigenvalues --   -0.34520  -0.34175  -0.33555  -0.31647  -0.27862
 Alpha  occ. eigenvalues --   -0.26264  -0.25488  -0.25131  -0.24629  -0.18529
 Alpha virt. eigenvalues --   -0.04070  -0.01250  -0.00004   0.00365   0.05570
 Alpha virt. eigenvalues --    0.08741   0.09797   0.11884   0.12450   0.13391
 Alpha virt. eigenvalues --    0.13726   0.14651   0.14908   0.15172   0.16194

  Beta  occ. eigenvalues --  -19.17303 -19.11800 -10.26761 -10.26338 -10.20558
  Beta  occ. eigenvalues --  -10.19674 -10.19669 -10.19605 -10.19537 -10.19512
  Beta  occ. eigenvalues --  -10.19511 -10.19468 -10.19385 -10.19316 -10.19281
  Beta  occ. eigenvalues --  -10.19046 -10.18374 -10.17688  -1.05831  -1.00530
  Beta  occ. eigenvalues --   -0.86069  -0.85531  -0.78256  -0.76272  -0.75013
  Beta  occ. eigenvalues --   -0.74736  -0.72803  -0.71909  -0.64435  -0.62264
  Beta  occ. eigenvalues --   -0.60802  -0.60212  -0.57537  -0.54700  -0.52237
  Beta  occ. eigenvalues --   -0.50778  -0.49757  -0.46949  -0.46133  -0.45600
  Beta  occ. eigenvalues --   -0.45200  -0.44669  -0.44144  -0.43036  -0.42455
  Beta  occ. eigenvalues --   -0.42207  -0.40763  -0.40473  -0.38617  -0.38299
  Beta  occ. eigenvalues --   -0.38036  -0.36807  -0.36756  -0.35677  -0.35097
  Beta  occ. eigenvalues --   -0.34364  -0.34036  -0.32487  -0.30671  -0.26826
  Beta  occ. eigenvalues --   -0.25784  -0.25025  -0.24759  -0.24227
  Beta virt. eigenvalues --   -0.10843  -0.02720  -0.00989   0.00300   0.01445
  Beta virt. eigenvalues --    0.07398   0.08866   0.09844   0.12031   0.12505
  Beta virt. eigenvalues --    0.13471   0.13860   0.14879   0.15210   0.15378

 Mulliken charges and spin densities:
               1          2
     1  C    0.312585   0.047578
     2  C    0.211417   0.477072
     3  O   -0.586089   0.185017
     4  C   -0.350011   0.005775
     5  H    0.131341   0.006493
     6  H    0.122148  -0.001159
     7  H    0.121958   0.000604
     8  C   -0.339956  -0.017474
     9  H    0.131849   0.001000
    10  H    0.129696   0.005656
    11  H    0.132826   0.025007
    12  C    0.088161  -0.023397
    13  C   -0.117877   0.034413
    14  C   -0.124494   0.030834
    15  C   -0.101662  -0.016670
    16  H    0.105433  -0.001738
    17  C   -0.109103  -0.017566
    18  H    0.105544  -0.001231
    19  C   -0.093730   0.035955
    20  H    0.104029   0.000645
    21  H    0.105220   0.000620
    22  H    0.105665  -0.001590
    23  C    0.103918  -0.117735
    24  C   -0.115950   0.140478
    25  C   -0.119916   0.137005
    26  C   -0.101153  -0.074427
    27  H    0.113880  -0.006023
    28  C   -0.108218  -0.074871
    29  H    0.107132  -0.005834
    30  C   -0.093369   0.150197
    31  H    0.106873   0.002690
    32  H    0.107753   0.002642
    33  H    0.107758  -0.006740
    34  O   -0.534492   0.067968
    35  H    0.340837   0.008806
 Sum of Mulliken charges =  -0.00000   1.00000

 Dipole moment (field-independent basis, Debye):
    X=              0.8493    Y=              3.9264    Z=              0.4230  Tot=              4.0395
 Quadrupole moment (field-independent basis, Debye-Ang):
   XX=           -100.3934   YY=           -103.6379   ZZ=           -102.6336
   XY=             -1.8686   XZ=             -7.5801   YZ=             -0.9300

 Normal termination of Gaussian 16 at Fri May 24 19:34:53 2019.
