 Gaussian 16, Revision B.01,
 Gaussian 16:  ES64L-G16RevB.01 20-Dec-2017

 ----------------------------------------------------------------------
 #p td=(50-50,nstates=18) ub3lyp/6-31g(d,p) scrf=(iefpcm,solvent=aceton
 itrile) guess=(mix,always) empiricaldispersion=gd3
 ----------------------------------------------------------------------

 -------------------
 Title Card Required
 -------------------
 Symbolic Z-matrix:
 Charge =  0 Multiplicity = 2

                         Standard orientation:
 ---------------------------------------------------------------------
 Center     Atomic      Atomic             Coordinates (Angstroms)
 Number     Number       Type             X           Y           Z
 ---------------------------------------------------------------------
      1          6           0       -0.763142   -1.359970   -0.757662
      2          6           0        0.694135   -1.255743    0.750808
      3          8           0       -1.197256   -2.504665   -0.417684
      4          6           0        0.132322   -1.308659   -1.996679
      5          1           0       -0.523756   -1.414484   -2.867892
      6          1           0        0.700853   -0.386401   -2.105503
      7          1           0        0.821729   -2.152765   -1.976320
      8          6           0       -0.168048   -1.234446    1.994739
      9          1           0       -0.728176   -0.308354    2.110051
     10          1           0       -0.876599   -2.063098    1.963481
     11          1           0        0.487639   -1.359196    2.864244
     12          6           0       -1.619840   -0.152403   -0.477849
     13          6           0       -2.814318   -0.328657    0.240937
     14          6           0       -1.284457    1.138713   -0.916667
     15          6           0       -3.644983    0.752754    0.522217
     16          1           0       -3.073141   -1.329676    0.567152
     17          6           0       -2.116310    2.223184   -0.635323
     18          1           0       -0.366928    1.308852   -1.466637
     19          6           0       -3.297059    2.035546    0.086361
     20          1           0       -4.565360    0.597750    1.077710
     21          1           0       -1.839302    3.215456   -0.978738
     22          1           0       -3.942869    2.880763    0.305179
     23          6           0        1.591862   -0.132905    0.473678
     24          6           0        2.759255   -0.326228   -0.298950
     25          6           0        1.309257    1.168573    0.942429
     26          6           0        3.607071    0.737857   -0.585901
     27          1           0        2.987034   -1.320242   -0.663704
     28          6           0        2.159356    2.230330    0.648337
     29          1           0        0.417074    1.354361    1.527229
     30          6           0        3.311085    2.022467   -0.116712
     31          1           0        4.501587    0.567788   -1.177427
     32          1           0        1.922148    3.223795    1.016320
     33          1           0        3.971859    2.853107   -0.344977
     34          8           0        1.255879   -2.476714    0.490634
     35          1           0        0.500126   -3.079100    0.323657
 ---------------------------------------------------------------------

 SCF Done:  E(UB3LYP) =  -770.405609366     A.U. after   19 cycles

 Excitation energies and oscillator strengths:

 Excited State   1:  2.076-A      1.8033 eV  687.52 nm  f=0.0015  <S**2>=0.827
     63B -> 65B       -0.20432
     64B -> 65B        0.95754
     64B -> 66B       -0.11365
 This state for optimization and/or second-order correction.
 Total Energy, E(TD-HF/TD-DFT) =  -770.339337802
 Copying the excited state density for this state as the 1-particle RhoCI density.

 Excited State   2:  2.141-A      2.6338 eV  470.74 nm  f=0.0266  <S**2>=0.896
     62A -> 66A        0.10128
     62B -> 65B        0.12998
     63B -> 65B        0.94113
     64B -> 65B        0.19459

 Excited State   3:  2.088-A      2.8084 eV  441.48 nm  f=0.0054  <S**2>=0.840
     60B -> 65B        0.13468
     61B -> 65B        0.10665
     62B -> 65B        0.95103
     63B -> 65B       -0.12612

 Excited State   4:  2.156-A      2.9506 eV  420.19 nm  f=0.0117  <S**2>=0.912
     65A -> 66A       -0.27001
     65A -> 69A       -0.16918
     60B -> 65B       -0.31299
     61B -> 65B        0.85235

 Excited State   5:  2.168-A      3.1532 eV  393.19 nm  f=0.0170  <S**2>=0.925
     65A -> 66A        0.37537
     65A -> 67A       -0.10476
     65A -> 69A        0.12021
     60B -> 65B        0.71157
     61B -> 65B        0.44643
     62B -> 65B       -0.21189

 Excited State   6:  2.359-A      3.4046 eV  364.17 nm  f=0.1671  <S**2>=1.141
     62A -> 66A       -0.14942
     63A -> 67A       -0.10213
     64A -> 66A       -0.11962
     65A -> 66A        0.75606
     65A -> 69A       -0.12328
     59B -> 65B        0.22141
     60B -> 65B       -0.41461
     62B -> 67B       -0.10036
     63B -> 66B        0.15906
     63B -> 69B       -0.11126

 Excited State   7:  2.211-A      3.8922 eV  318.54 nm  f=0.0424  <S**2>=0.973
     62A -> 66A        0.11304
     65A -> 66A       -0.11333
     58B -> 65B       -0.15300
     59B -> 65B        0.90128
     63B -> 66B       -0.12564

 Excited State   8:  3.013-A      3.9388 eV  314.78 nm  f=0.0971  <S**2>=2.019
     60A -> 69A        0.10116
     61A -> 67A       -0.18886
     62A -> 66A        0.25507
     62A -> 67A       -0.10426
     62A -> 68A       -0.17853
     63A -> 67A        0.13543
     63A -> 68A        0.23909
     63A -> 69A       -0.15978
     64A -> 66A        0.17355
     65A -> 66A        0.31366
     65A -> 67A        0.14681
     65A -> 69A        0.15282
     59B -> 65B       -0.28216
     60B -> 65B       -0.29984
     61B -> 67B       -0.18185
     62B -> 66B       -0.12268
     62B -> 67B        0.18678
     62B -> 68B       -0.24842
     63B -> 65B       -0.12670
     63B -> 66B       -0.31423
     63B -> 69B        0.15233
     64B -> 66B       -0.14033

 Excited State   9:  2.184-A      4.0247 eV  308.06 nm  f=0.0113  <S**2>=0.942
     65A -> 67A        0.93343
     65A -> 68A       -0.14844
     60B -> 65B        0.13688
     60B -> 67B        0.11240
     61B -> 65B        0.11825

 Excited State  10:  3.159-A      4.1633 eV  297.80 nm  f=0.0142  <S**2>=2.244
     60A -> 66A       -0.16528
     60A -> 68A       -0.10510
     61A -> 67A        0.32372
     61A -> 68A       -0.19661
     61A -> 69A        0.19406
     63A -> 67A        0.33618
     64A -> 67A        0.12898
     65A -> 66A        0.18739
     65A -> 68A       -0.13642
     65A -> 69A       -0.24208
     58B -> 65B        0.24719
     60B -> 65B        0.19084
     60B -> 66B       -0.18218
     60B -> 68B        0.10542
     60B -> 69B       -0.11605
     61B -> 65B       -0.10506
     61B -> 66B        0.13712
     61B -> 67B        0.24111
     61B -> 68B        0.28024
     62B -> 67B        0.31853
     63B -> 67B       -0.15812

 Excited State  11:  2.320-A      4.3753 eV  283.37 nm  f=0.0568  <S**2>=1.095
     61A -> 67A       -0.13674
     64A -> 66A        0.11880
     65A -> 66A       -0.18196
     65A -> 68A        0.16265
     65A -> 69A       -0.30495
     58B -> 65B        0.80024
     61B -> 67B       -0.11116
     63B -> 67B        0.12996

 Excited State  12:  2.395-A      4.4029 eV  281.60 nm  f=0.0041  <S**2>=1.185
     62A -> 67A       -0.12505
     62A -> 68A       -0.10804
     64A -> 66A       -0.10601
     65A -> 67A        0.14809
     65A -> 68A        0.73278
     65A -> 69A       -0.40515
     58B -> 65B       -0.29115
     61B -> 66B        0.12345
     62B -> 66B       -0.11514
     63B -> 67B        0.14796
     63B -> 68B       -0.12775

 Excited State  13:  2.653-A      4.5160 eV  274.55 nm  f=0.0158  <S**2>=1.509
     62A -> 66A       -0.13181
     64A -> 66A        0.63890
     65A -> 68A       -0.29112
     65A -> 69A       -0.55591
     58B -> 65B       -0.27372
     64B -> 66B       -0.13776

 Excited State  14:  2.976-A      4.5513 eV  272.41 nm  f=0.0304  <S**2>=1.964
     61A -> 67A        0.21847
     62A -> 66A       -0.17253
     63A -> 66A       -0.20765
     63A -> 68A       -0.16932
     63A -> 69A        0.12704
     64A -> 66A        0.57728
     65A -> 68A        0.29925
     65A -> 69A        0.39806
     58B -> 65B        0.10624
     60B -> 65B       -0.12095
     61B -> 67B        0.24386
     62B -> 68B        0.22917
     64B -> 66B       -0.20483

 Excited State  15:  3.237-A      4.6373 eV  267.37 nm  f=0.0019  <S**2>=2.369
     61A -> 66A       -0.11965
     61A -> 69A        0.11297
     62A -> 66A       -0.15045
     62A -> 68A        0.10284
     63A -> 66A        0.71194
     63A -> 68A       -0.10608
     63A -> 69A       -0.13378
     65A -> 67A        0.10607
     65A -> 68A        0.26310
     61B -> 69B        0.10301
     62B -> 66B        0.38739
     62B -> 69B       -0.12689
     63B -> 66B       -0.15839
     63B -> 67B       -0.12809
     63B -> 68B        0.12208

 Excited State  16:  3.327-A      4.6944 eV  264.11 nm  f=0.0014  <S**2>=2.518
     61A -> 67A        0.11267
     62A -> 66A        0.54478
     62A -> 69A       -0.19958
     63A -> 66A        0.13339
     63A -> 67A       -0.23300
     63A -> 68A       -0.23130
     63A -> 69A        0.15463
     65A -> 68A       -0.13502
     65A -> 69A       -0.15235
     61B -> 67B        0.13234
     61B -> 68B       -0.10128
     62B -> 66B       -0.16365
     62B -> 67B       -0.27242
     62B -> 68B        0.25183
     63B -> 66B       -0.35176
     63B -> 69B        0.14996

 Excited State  17:  2.478-A      4.8976 eV  253.16 nm  f=0.0117  <S**2>=1.285
     64A -> 66A        0.22366
     63B -> 66B       -0.25698
     64B -> 65B        0.10655
     64B -> 66B        0.90905
     64B -> 70B       -0.10180

 Excited State  18:  3.352-A      4.9582 eV  250.06 nm  f=0.0006  <S**2>=2.559
     61A -> 66A        0.62674
     61A -> 68A        0.12791
     61A -> 69A        0.19052
     62A -> 67A       -0.10787
     63A -> 66A        0.17648
     63A -> 68A        0.16630
     63A -> 69A        0.17868
     65A -> 68A       -0.11542
     65A -> 69A        0.15299
     60B -> 67B       -0.11756
     60B -> 68B       -0.11107
     61B -> 66B        0.39936
     61B -> 69B        0.16313
     62B -> 66B        0.18448
     62B -> 69B        0.14727
     63B -> 67B        0.19509
     63B -> 69B       -0.10324
     64B -> 67B        0.11402

 The electronic state is 2-A.
 Alpha  occ. eigenvalues --  -19.17507 -19.12211 -10.27584 -10.26543 -10.20563
 Alpha  occ. eigenvalues --  -10.19969 -10.19934 -10.19708 -10.19567 -10.19563
 Alpha  occ. eigenvalues --  -10.19532 -10.19450 -10.19386 -10.19228 -10.19193
 Alpha  occ. eigenvalues --  -10.18959 -10.18390 -10.17650  -1.06541  -1.01032
 Alpha  occ. eigenvalues --   -0.86411  -0.85520  -0.78972  -0.76319  -0.75293
 Alpha  occ. eigenvalues --   -0.74689  -0.73149  -0.72001  -0.65086  -0.62308
 Alpha  occ. eigenvalues --   -0.61013  -0.60199  -0.57910  -0.54976  -0.52491
 Alpha  occ. eigenvalues --   -0.51853  -0.50190  -0.47845  -0.46455  -0.45601
 Alpha  occ. eigenvalues --   -0.45268  -0.44847  -0.44127  -0.43327  -0.42624
 Alpha  occ. eigenvalues --   -0.42142  -0.40941  -0.40751  -0.38776  -0.38708
 Alpha  occ. eigenvalues --   -0.38176  -0.37325  -0.36876  -0.36057  -0.35082
 Alpha  occ. eigenvalues --   -0.34635  -0.34130  -0.33488  -0.31511  -0.27926
 Alpha  occ. eigenvalues --   -0.26299  -0.25483  -0.25075  -0.24517  -0.19362
 Alpha virt. eigenvalues --   -0.03537  -0.01309   0.00025   0.00037   0.06344
 Alpha virt. eigenvalues --    0.08736   0.09794   0.11815   0.12484   0.13412
 Alpha virt. eigenvalues --    0.13728   0.14569   0.14787   0.15242   0.16220

  Beta  occ. eigenvalues --  -19.17295 -19.11571 -10.26861 -10.26512 -10.20678
  Beta  occ. eigenvalues --  -10.19820 -10.19770 -10.19640 -10.19621 -10.19573
  Beta  occ. eigenvalues --  -10.19538 -10.19410 -10.19355 -10.19243 -10.19208
  Beta  occ. eigenvalues --  -10.18926 -10.18388 -10.17616  -1.05889  -0.99902
  Beta  occ. eigenvalues --   -0.86212  -0.85447  -0.78418  -0.76105  -0.75142
  Beta  occ. eigenvalues --   -0.74643  -0.72856  -0.71778  -0.64522  -0.62114
  Beta  occ. eigenvalues --   -0.60907  -0.60153  -0.57638  -0.54649  -0.52294
  Beta  occ. eigenvalues --   -0.50936  -0.49722  -0.47119  -0.46169  -0.45480
  Beta  occ. eigenvalues --   -0.45106  -0.44702  -0.44061  -0.43107  -0.42549
  Beta  occ. eigenvalues --   -0.42111  -0.40596  -0.40349  -0.38636  -0.38234
  Beta  occ. eigenvalues --   -0.38001  -0.36831  -0.36710  -0.35710  -0.34965
  Beta  occ. eigenvalues --   -0.34494  -0.33939  -0.32292  -0.30336  -0.26843
  Beta  occ. eigenvalues --   -0.25861  -0.24959  -0.24653  -0.23996
  Beta virt. eigenvalues --   -0.11549  -0.02378  -0.01049   0.00282   0.00988
  Beta virt. eigenvalues --    0.08208   0.08863   0.09836   0.11978   0.12540
  Beta virt. eigenvalues --    0.13495   0.13860   0.14799   0.15077   0.15423

 Mulliken charges and spin densities:
               1          2
     1  C    0.296601   0.037020
     2  C    0.209969   0.434179
     3  O   -0.583817   0.250118
     4  C   -0.344130   0.012726
     5  H    0.128156   0.006780
     6  H    0.119811  -0.002008
     7  H    0.120061   0.000024
     8  C   -0.334312  -0.009448
     9  H    0.131760   0.000603
    10  H    0.129650   0.003550
    11  H    0.132318   0.021249
    12  C    0.090640  -0.019347
    13  C   -0.119236   0.030985
    14  C   -0.125984   0.028056
    15  C   -0.101843  -0.014778
    16  H    0.104258  -0.001679
    17  C   -0.109411  -0.015821
    18  H    0.104409  -0.001067
    19  C   -0.094706   0.032543
    20  H    0.103075   0.000589
    21  H    0.104287   0.000572
    22  H    0.104594  -0.001427
    23  C    0.103616  -0.101830
    24  C   -0.112266   0.123649
    25  C   -0.116457   0.120316
    26  C   -0.101421  -0.065498
    27  H    0.115735  -0.005272
    28  C   -0.108214  -0.065865
    29  H    0.108962  -0.005079
    30  C   -0.090928   0.132445
    31  H    0.108275   0.002383
    32  H    0.109167   0.002323
    33  H    0.109448  -0.005896
    34  O   -0.531839   0.067324
    35  H    0.339772   0.007582
 Sum of Mulliken charges =  -0.00000   1.00000

 Dipole moment (field-independent basis, Debye):
    X=              1.1737    Y=              3.9520    Z=              0.5531  Tot=              4.1596
 Quadrupole moment (field-independent basis, Debye-Ang):
   XX=           -100.1449   YY=           -103.4428   ZZ=           -102.8208
   XY=             -1.6141   XZ=             -7.4302   YZ=             -1.1142

 Normal termination of Gaussian 16 at Fri May 24 20:23:16 2019.
