 Gaussian 16, Revision A.03,
 Gaussian 16:  ES64L-G16RevA.03 25-Dec-2016

 ----------------------------------------------------------------------
 #p td=(50-50,nstates=36) ub3lyp/6-31g(d,p) scrf=(iefpcm,solvent=aceton
 itrile) guess=(core,mix,always) empiricaldispersion=gd3
 ----------------------------------------------------------------------

 After the closed shell GS is optimized, find out which excited state w
 e need
 ----------------------------------------------------------------------
 Symbolic Z-matrix:
 Charge =  0 Multiplicity = 1

                         Standard orientation:
 ---------------------------------------------------------------------
 Center     Atomic      Atomic             Coordinates (Angstroms)
 Number     Number       Type             X           Y           Z
 ---------------------------------------------------------------------
      1          6           0        0.354292   -1.479367   -0.300682
      2          1           0        4.618022   -1.283283    1.298049
      3          6           0        1.789590    1.486036    0.313703
      4          8           0        2.516551    1.447090   -0.678564
      5          8           0        1.087393   -1.591673    0.682724
      6          7           0        4.641778   -0.832169   -0.640352
      7          1           0        4.542537   -1.382863   -1.490021
      8          7           0        4.216729   -1.684188    0.453524
      9          1           0        3.201097   -1.640852    0.567673
     10          1           0        4.015195   -0.029334   -0.735132
     11          6           0        0.944413   -1.344207   -1.686276
     12          1           0        0.596890   -2.155483   -2.333883
     13          1           0        0.629864   -0.399910   -2.139806
     14          1           0        2.031853   -1.359962   -1.621332
     15          6           0        2.344620    1.203121    1.691376
     16          1           0        2.133242    2.030138    2.376266
     17          1           0        1.877621    0.300528    2.095869
     18          1           0        3.421182    1.048234    1.619719
     19          6           0       -1.127817   -1.466906   -0.133755
     20          6           0       -1.661066   -1.665472    1.151099
     21          6           0       -2.000025   -1.243915   -1.210097
     22          6           0       -3.036203   -1.645070    1.355511
     23          1           0       -0.976966   -1.829640    1.976279
     24          6           0       -3.378972   -1.217805   -1.003288
     25          1           0       -1.611000   -1.079441   -2.208397
     26          6           0       -3.898430   -1.419016    0.276932
     27          1           0       -3.439469   -1.800289    2.351458
     28          1           0       -4.046348   -1.037619   -1.840128
     29          1           0       -4.972479   -1.398392    0.435704
     30          6           0        0.335793    1.789979    0.163553
     31          6           0       -0.151912    2.126260   -1.111322
     32          6           0       -0.562152    1.703684    1.238513
     33          6           0       -1.508064    2.360762   -1.308906
     34          1           0        0.551512    2.192584   -1.934174
     35          6           0       -1.922581    1.933380    1.038083
     36          1           0       -0.210412    1.435119    2.228133
     37          6           0       -2.397359    2.258132   -0.233613
     38          1           0       -1.876758    2.614901   -2.297804
     39          1           0       -2.612881    1.843333    1.870299
     40          1           0       -3.458570    2.425814   -0.389234
 ---------------------------------------------------------------------

 SCF Done:  E(UB3LYP) =  -881.758711641     A.U. after   23 cycles

 Excitation energies and oscillator strengths:

 Excited State   1:  3.000-A      3.2887 eV  377.01 nm  f=0.0000  <S**2>=2.000
     66A -> 75A       -0.16044
     66A -> 77A       -0.13749
     68A -> 75A       -0.28513
     69A -> 75A       -0.16737
     70A -> 74A       -0.43765
     70A -> 75A        0.11087
     71A -> 74A       -0.25095
     71A -> 76A        0.18113
     66B -> 75B        0.16044
     66B -> 77B        0.13749
     68B -> 75B        0.28512
     69B -> 75B        0.16737
     70B -> 74B        0.43765
     70B -> 75B       -0.11086
     71B -> 74B        0.25095
     71B -> 76B       -0.18113
 This state for optimization and/or second-order correction.
 Total Energy, E(TD-HF/TD-DFT) =  -881.637855919
 Copying the excited state density for this state as the 1-particle RhoCI density.

 Excited State   2:  3.000-A      3.3015 eV  375.53 nm  f=0.0000  <S**2>=2.000
     66A -> 74A        0.16244
     66A -> 76A       -0.13622
     67A -> 74A        0.12947
     68A -> 74A        0.33108
     69A -> 74A        0.23416
     70A -> 75A        0.38138
     71A -> 75A        0.19584
     71A -> 77A        0.17698
     66B -> 74B       -0.16244
     66B -> 76B        0.13622
     67B -> 74B       -0.12946
     68B -> 74B       -0.33108
     69B -> 74B       -0.23415
     70B -> 75B       -0.38137
     71B -> 75B       -0.19584
     71B -> 77B       -0.17698

 Excited State   3:  3.000-A      3.3498 eV  370.12 nm  f=0.0000  <S**2>=2.000
     67A -> 74A        0.40266
     68A -> 75A       -0.14983
     69A -> 75A        0.33824
     73A -> 74A       -0.37184
     67B -> 74B       -0.40265
     68B -> 75B        0.14983
     69B -> 75B       -0.33823
     73B -> 74B        0.37183

 Excited State   4:  3.000-A      3.3828 eV  366.51 nm  f=0.0000  <S**2>=2.000
     66A -> 74A       -0.12013
     67A -> 74A        0.11075
     67A -> 75A        0.33945
     68A -> 74A       -0.22250
     69A -> 74A        0.40559
     69A -> 75A       -0.16640
     73A -> 75A       -0.27135
     66B -> 74B        0.12013
     67B -> 74B       -0.11074
     67B -> 75B       -0.33944
     68B -> 74B        0.22250
     69B -> 74B       -0.40559
     69B -> 75B        0.16640
     73B -> 75B        0.27134

 Excited State   5:  1.000-A      3.7176 eV  333.51 nm  f=0.0027  <S**2>=0.000
     67A -> 74A       -0.28288
     69A -> 75A       -0.22247
     73A -> 74A        0.58797
     67B -> 74B       -0.28289
     69B -> 75B       -0.22248
     73B -> 74B        0.58798

 Excited State   6:  3.000-A      3.7969 eV  326.54 nm  f=0.0000  <S**2>=2.000
     66A -> 75A        0.23032
     68A -> 75A       -0.19599
     70A -> 74A       -0.24015
     71A -> 74A        0.56262
     66B -> 75B       -0.23032
     68B -> 75B        0.19600
     70B -> 74B        0.24015
     71B -> 74B       -0.56261

 Excited State   7:  1.000-A      3.8247 eV  324.17 nm  f=0.0008  <S**2>=0.000
     67A -> 75A        0.27206
     69A -> 74A        0.41824
     69A -> 75A       -0.16108
     70A -> 74A       -0.10110
     73A -> 75A       -0.41183
     67B -> 75B        0.27206
     69B -> 74B        0.41825
     69B -> 75B       -0.16108
     70B -> 74B       -0.10110
     73B -> 75B       -0.41183

 Excited State   8:  3.000-A      3.8889 eV  318.82 nm  f=0.0000  <S**2>=2.000
     66A -> 74A        0.34368
     68A -> 74A       -0.23700
     70A -> 75A       -0.18638
     71A -> 75A        0.50351
     66B -> 74B       -0.34368
     68B -> 74B        0.23700
     70B -> 75B        0.18638
     71B -> 75B       -0.50351

 Excited State   9:  3.000-A      3.9829 eV  311.29 nm  f=0.0000  <S**2>=2.000
     67A -> 74A        0.24842
     69A -> 75A        0.23646
     73A -> 74A        0.57426
     73A -> 75A       -0.15290
     67B -> 74B       -0.24841
     69B -> 75B       -0.23645
     73B -> 74B       -0.57425
     73B -> 75B        0.15289

 Excited State  10:  1.000-A      4.1123 eV  301.49 nm  f=0.0043  <S**2>=0.000
     67A -> 74A        0.35205
     69A -> 74A       -0.12969
     69A -> 75A        0.35727
     70A -> 74A        0.12210
     73A -> 74A        0.35875
     73A -> 75A       -0.22939
     67B -> 74B        0.35206
     69B -> 74B       -0.12971
     69B -> 75B        0.35727
     70B -> 74B        0.12210
     73B -> 74B        0.35876
     73B -> 75B       -0.22943

 Excited State  11:  3.000-A      4.1290 eV  300.28 nm  f=0.0000  <S**2>=2.000
     67A -> 74A        0.10074
     69A -> 74A        0.18571
     72A -> 74A        0.25961
     73A -> 74A        0.12616
     73A -> 75A        0.58969
     67B -> 74B       -0.10074
     69B -> 74B       -0.18567
     72B -> 74B       -0.25956
     73B -> 74B       -0.12616
     73B -> 75B       -0.58962

 Excited State  12:  1.000-A      4.1695 eV  297.36 nm  f=0.0052  <S**2>=0.000
     67A -> 74A        0.18160
     67A -> 75A        0.11789
     69A -> 74A        0.21902
     72A -> 74A        0.43401
     73A -> 74A        0.12174
     73A -> 75A        0.43484
     67B -> 74B        0.18162
     67B -> 75B        0.11790
     69B -> 74B        0.21904
     72B -> 74B        0.43404
     73B -> 74B        0.12176
     73B -> 75B        0.43491

 Excited State  13:  3.000-A      4.2279 eV  293.26 nm  f=0.0000  <S**2>=2.000
     69A -> 74A       -0.12598
     72A -> 74A        0.64777
     73A -> 75A       -0.21031
     69B -> 74B        0.12594
     72B -> 74B       -0.64768
     73B -> 75B        0.21027

 Excited State  14:  1.000-A      4.2469 eV  291.94 nm  f=0.0001  <S**2>=0.000
     67A -> 74A       -0.15070
     67A -> 75A       -0.11640
     69A -> 74A       -0.23365
     72A -> 74A        0.54837
     73A -> 75A       -0.28727
     67B -> 74B       -0.15071
     67B -> 75B       -0.11641
     69B -> 74B       -0.23367
     72B -> 74B        0.54846
     73B -> 75B       -0.28732

 Excited State  15:  1.000-A      4.3432 eV  285.47 nm  f=0.0009  <S**2>=0.000
     70A -> 74A       -0.10559
     71A -> 74A        0.67818
     70B -> 74B       -0.10560
     71B -> 74B        0.67818

 Excited State  16:  3.000-A      4.3810 eV  283.01 nm  f=0.0000  <S**2>=2.000
     66A -> 77A       -0.29616
     68A -> 77A        0.16909
     70A -> 74A        0.25011
     70A -> 76A       -0.19980
     71A -> 74A        0.11296
     71A -> 76A        0.47112
     66B -> 77B        0.29616
     68B -> 77B       -0.16910
     70B -> 74B       -0.25011
     70B -> 76B        0.19980
     71B -> 74B       -0.11297
     71B -> 76B       -0.47112

 Excited State  17:  3.000-A      4.4248 eV  280.20 nm  f=0.0000  <S**2>=2.000
     66A -> 76A       -0.31528
     68A -> 74A       -0.22674
     68A -> 76A        0.18434
     70A -> 76A       -0.11511
     70A -> 77A       -0.15294
     71A -> 75A       -0.10899
     71A -> 77A        0.42829
     72A -> 75A       -0.22362
     66B -> 76B        0.31528
     68B -> 74B        0.22674
     68B -> 76B       -0.18434
     70B -> 76B        0.11511
     70B -> 77B        0.15294
     71B -> 75B        0.10899
     71B -> 77B       -0.42829
     72B -> 75B        0.22354

 Excited State  18:  3.000-A      4.4346 eV  279.58 nm  f=0.0000  <S**2>=2.000
     66A -> 76A       -0.10655
     71A -> 77A        0.14903
     72A -> 75A        0.65714
     66B -> 76B        0.10654
     71B -> 77B       -0.14902
     72B -> 75B       -0.65639

 Excited State  19:  1.000-A      4.4392 eV  279.30 nm  f=0.0002  <S**2>=0.000
     72A -> 75A        0.69105
     72B -> 75B        0.69179

 Excited State  20:  1.000-A      4.5648 eV  271.61 nm  f=0.0334  <S**2>=0.000
     68A -> 74A       -0.19290
     69A -> 75A       -0.12421
     70A -> 74A        0.49225
     71A -> 75A        0.39565
     68B -> 74B       -0.19288
     69B -> 75B       -0.12421
     70B -> 74B        0.49222
     71B -> 75B        0.39565

 Excited State  21:  1.000-A      4.5881 eV  270.23 nm  f=0.0093  <S**2>=0.000
     70A -> 74A       -0.38425
     70A -> 75A       -0.21861
     71A -> 74A       -0.11813
     71A -> 75A        0.50982
     70B -> 74B       -0.38421
     70B -> 75B       -0.21855
     71B -> 74B       -0.11814
     71B -> 75B        0.50982

 Excited State  22:  3.000-A      4.6134 eV  268.75 nm  f=0.0000  <S**2>=2.000
     66A -> 74A        0.11402
     68A -> 74A        0.28225
     68A -> 75A        0.17133
     69A -> 74A        0.15649
     70A -> 74A       -0.29252
     70A -> 75A       -0.48164
     66B -> 74B       -0.11401
     68B -> 74B       -0.28225
     68B -> 75B       -0.17135
     69B -> 74B       -0.15647
     70B -> 74B        0.29261
     70B -> 75B        0.48167

 Excited State  23:  3.000-A      4.7100 eV  263.24 nm  f=0.0000  <S**2>=2.000
     66A -> 74A        0.49255
     66A -> 75A        0.14773
     68A -> 75A       -0.17002
     70A -> 74A        0.12320
     71A -> 75A       -0.37959
     66B -> 74B       -0.49253
     66B -> 75B       -0.14773
     68B -> 75B        0.17002
     70B -> 74B       -0.12321
     71B -> 75B        0.37960

 Excited State  24:  1.000-A      4.7289 eV  262.18 nm  f=0.0020  <S**2>=0.000
     67A -> 75A       -0.14542
     68A -> 74A        0.42945
     69A -> 74A        0.25271
     69A -> 75A       -0.11701
     70A -> 74A        0.14856
     70A -> 75A       -0.42663
     67B -> 75B       -0.14541
     68B -> 74B        0.42946
     69B -> 74B        0.25271
     69B -> 75B       -0.11700
     70B -> 74B        0.14855
     70B -> 75B       -0.42665

 Excited State  25:  3.000-A      4.7495 eV  261.04 nm  f=0.0000  <S**2>=2.000
     66A -> 75A        0.11589
     67A -> 74A       -0.37753
     67A -> 75A        0.11083
     68A -> 74A       -0.18887
     69A -> 74A        0.12691
     69A -> 75A        0.48012
     70A -> 74A       -0.13337
     66B -> 75B       -0.11590
     67B -> 74B        0.37739
     67B -> 75B       -0.11084
     68B -> 74B        0.18884
     69B -> 74B       -0.12681
     69B -> 75B       -0.47997
     70B -> 74B        0.13338

 Excited State  26:  1.000-A      4.7663 eV  260.12 nm  f=0.0002  <S**2>=0.000
     67A -> 74A       -0.42372
     68A -> 75A       -0.15418
     69A -> 74A        0.26299
     69A -> 75A        0.45966
     67B -> 74B       -0.42383
     68B -> 75B       -0.15411
     69B -> 74B        0.26297
     69B -> 75B        0.45981

 Excited State  27:  3.000-A      4.7910 eV  258.79 nm  f=0.0000  <S**2>=2.000
     66A -> 74A       -0.11849
     66A -> 75A       -0.14989
     67A -> 74A       -0.17239
     67A -> 75A       -0.24517
     68A -> 74A        0.12495
     68A -> 75A       -0.43255
     69A -> 74A        0.31278
     70A -> 74A        0.17367
     70A -> 75A       -0.14080
     66B -> 74B        0.11856
     66B -> 75B        0.14993
     67B -> 74B        0.17251
     67B -> 75B        0.24502
     68B -> 74B       -0.12505
     68B -> 75B        0.43261
     69B -> 74B       -0.31277
     70B -> 74B       -0.17370
     70B -> 75B        0.14078

 Excited State  28:  1.000-A      4.7943 eV  258.60 nm  f=0.0236  <S**2>=0.000
     66A -> 74A       -0.36959
     67A -> 74A       -0.14162
     67A -> 75A        0.38224
     68A -> 74A        0.31041
     68A -> 75A       -0.12094
     69A -> 74A       -0.16049
     70A -> 75A        0.12693
     71A -> 75A        0.13388
     66B -> 74B       -0.36958
     67B -> 74B       -0.14150
     67B -> 75B        0.38210
     68B -> 74B        0.31027
     68B -> 75B       -0.12069
     69B -> 74B       -0.16050
     70B -> 75B        0.12700
     71B -> 75B        0.13387

 Excited State  29:  3.000-A      4.8009 eV  258.25 nm  f=0.0000  <S**2>=2.000
     67A -> 74A        0.15044
     67A -> 75A       -0.51668
     68A -> 74A       -0.24714
     68A -> 75A        0.26150
     69A -> 74A        0.21419
     70A -> 74A       -0.12117
     67B -> 74B       -0.15048
     67B -> 75B        0.51680
     68B -> 74B        0.24726
     68B -> 75B       -0.26153
     69B -> 74B       -0.21426
     70B -> 74B        0.12119

 Excited State  30:  1.000-A      4.8444 eV  255.93 nm  f=0.0177  <S**2>=0.000
     66A -> 74A        0.46782
     67A -> 75A        0.43042
     69A -> 74A       -0.15065
     70A -> 75A       -0.18657
     66B -> 74B        0.46786
     67B -> 75B        0.43049
     69B -> 74B       -0.15070
     70B -> 75B       -0.18657

 Excited State  31:  3.000-A      4.8485 eV  255.71 nm  f=0.0000  <S**2>=2.000
     66A -> 74A       -0.16601
     66A -> 75A        0.56318
     71A -> 74A       -0.27949
     71A -> 75A        0.14485
     66B -> 74B        0.16592
     66B -> 75B       -0.56318
     71B -> 74B        0.27949
     71B -> 75B       -0.14482

 Excited State  32:  1.000-A      4.9425 eV  250.86 nm  f=0.0124  <S**2>=0.000
     66A -> 75A       -0.37262
     67A -> 75A        0.10056
     68A -> 74A       -0.12055
     68A -> 75A        0.50631
     70A -> 75A       -0.13110
     66B -> 75B       -0.37263
     67B -> 75B        0.10056
     68B -> 74B       -0.12056
     68B -> 75B        0.50632
     70B -> 75B       -0.13110

 Excited State  33:  3.000-A      5.1093 eV  242.67 nm  f=0.0000  <S**2>=2.000
     66A -> 75A        0.11840
     66A -> 76A       -0.17884
     66A -> 77A       -0.13548
     67A -> 76A       -0.10573
     68A -> 76A       -0.15500
     68A -> 77A       -0.24849
     70A -> 76A        0.44177
     70A -> 77A        0.16886
     71A -> 76A        0.24208
     71A -> 77A        0.13932
     66B -> 75B       -0.11840
     66B -> 76B        0.17884
     66B -> 77B        0.13549
     67B -> 76B        0.10573
     68B -> 76B        0.15500
     68B -> 77B        0.24849
     70B -> 76B       -0.44177
     70B -> 77B       -0.16886
     71B -> 76B       -0.24208
     71B -> 77B       -0.13932

 Excited State  34:  1.000-A      5.1189 eV  242.21 nm  f=0.1857  <S**2>=0.000
     66A -> 74A        0.13827
     66A -> 75A        0.35975
     68A -> 74A        0.24782
     68A -> 75A        0.39428
     69A -> 75A        0.17143
     70A -> 75A        0.22466
     71A -> 75A        0.11430
     66B -> 74B        0.13827
     66B -> 75B        0.35976
     68B -> 74B        0.24782
     68B -> 75B        0.39428
     69B -> 75B        0.17143
     70B -> 75B        0.22467
     71B -> 75B        0.11430

 Excited State  35:  3.000-A      5.1561 eV  240.46 nm  f=0.0000  <S**2>=2.000
     66A -> 76A        0.11231
     68A -> 76A        0.38598
     68A -> 77A       -0.26499
     69A -> 76A        0.14321
     69A -> 77A       -0.14596
     70A -> 76A        0.17678
     70A -> 77A       -0.36329
     71A -> 77A       -0.17910
     66B -> 76B       -0.11231
     68B -> 76B       -0.38598
     68B -> 77B        0.26499
     69B -> 76B       -0.14321
     69B -> 77B        0.14596
     70B -> 76B       -0.17677
     70B -> 77B        0.36329
     71B -> 77B        0.17909

 Excited State  36:  1.000-A      5.1619 eV  240.19 nm  f=0.3064  <S**2>=0.000
     66A -> 74A       -0.27002
     66A -> 75A        0.41707
     67A -> 75A        0.13958
     68A -> 74A       -0.24290
     70A -> 74A        0.11325
     70A -> 75A       -0.32309
     70A -> 76A        0.11878
     66B -> 74B       -0.27002
     66B -> 75B        0.41707
     67B -> 75B        0.13959
     68B -> 74B       -0.24290
     70B -> 74B        0.11326
     70B -> 75B       -0.32309
     70B -> 76B        0.11879

 The electronic state is 1-A.
 Alpha  occ. eigenvalues --  -19.14931 -19.14675 -14.32312 -14.32135 -10.28641
 Alpha  occ. eigenvalues --  -10.28477 -10.20321 -10.20314 -10.20269 -10.20262
 Alpha  occ. eigenvalues --  -10.20183 -10.20160 -10.19918 -10.19870 -10.19752
 Alpha  occ. eigenvalues --  -10.19745 -10.19736 -10.19673 -10.18646 -10.18507
 Alpha  occ. eigenvalues --   -1.04568  -1.04280  -0.92380  -0.86436  -0.86128
 Alpha  occ. eigenvalues --   -0.77599  -0.77535  -0.75454  -0.75254  -0.73260
 Alpha  occ. eigenvalues --   -0.73044  -0.72922  -0.63260  -0.63134  -0.60962
 Alpha  occ. eigenvalues --   -0.60891  -0.55543  -0.55404  -0.51582  -0.51214
 Alpha  occ. eigenvalues --   -0.48117  -0.47462  -0.46695  -0.46646  -0.46305
 Alpha  occ. eigenvalues --   -0.46145  -0.45617  -0.44644  -0.44576  -0.43464
 Alpha  occ. eigenvalues --   -0.42763  -0.42689  -0.42655  -0.41992  -0.41847
 Alpha  occ. eigenvalues --   -0.39080  -0.39029  -0.38434  -0.37745  -0.36004
 Alpha  occ. eigenvalues --   -0.35981  -0.35685  -0.35165  -0.34730  -0.34686
 Alpha  occ. eigenvalues --   -0.26955  -0.26557  -0.26318  -0.26054  -0.25694
 Alpha  occ. eigenvalues --   -0.25095  -0.24253  -0.23079
 Alpha virt. eigenvalues --   -0.06591  -0.05797  -0.01268  -0.00593   0.03583
 Alpha virt. eigenvalues --    0.03695   0.07665   0.09752   0.09947   0.11055
 Alpha virt. eigenvalues --    0.12183   0.12800   0.14770   0.15190   0.15317

  Beta  occ. eigenvalues --  -19.14931 -19.14675 -14.32312 -14.32135 -10.28641
  Beta  occ. eigenvalues --  -10.28477 -10.20321 -10.20314 -10.20269 -10.20262
  Beta  occ. eigenvalues --  -10.20183 -10.20160 -10.19918 -10.19870 -10.19752
  Beta  occ. eigenvalues --  -10.19745 -10.19736 -10.19673 -10.18646 -10.18507
  Beta  occ. eigenvalues --   -1.04568  -1.04280  -0.92380  -0.86436  -0.86128
  Beta  occ. eigenvalues --   -0.77599  -0.77536  -0.75454  -0.75254  -0.73260
  Beta  occ. eigenvalues --   -0.73044  -0.72922  -0.63260  -0.63134  -0.60962
  Beta  occ. eigenvalues --   -0.60891  -0.55543  -0.55404  -0.51582  -0.51214
  Beta  occ. eigenvalues --   -0.48117  -0.47462  -0.46695  -0.46646  -0.46305
  Beta  occ. eigenvalues --   -0.46145  -0.45617  -0.44644  -0.44576  -0.43464
  Beta  occ. eigenvalues --   -0.42763  -0.42689  -0.42655  -0.41992  -0.41847
  Beta  occ. eigenvalues --   -0.39080  -0.39029  -0.38434  -0.37745  -0.36004
  Beta  occ. eigenvalues --   -0.35981  -0.35685  -0.35165  -0.34730  -0.34686
  Beta  occ. eigenvalues --   -0.26955  -0.26557  -0.26318  -0.26054  -0.25694
  Beta  occ. eigenvalues --   -0.25095  -0.24253  -0.23079
  Beta virt. eigenvalues --   -0.06591  -0.05797  -0.01268  -0.00593   0.03583
  Beta virt. eigenvalues --    0.03695   0.07665   0.09752   0.09947   0.11055
  Beta virt. eigenvalues --    0.12183   0.12800   0.14770   0.15190   0.15317

 Mulliken charges and spin densities:
               1          2
     1  C    0.403363   0.000002
     2  H    0.255037  -0.000000
     3  C    0.409154   0.000002
     4  O   -0.505828  -0.000002
     5  O   -0.503042  -0.000003
     6  N   -0.557097  -0.000000
     7  H    0.257364   0.000000
     8  N   -0.563584   0.000000
     9  H    0.271368   0.000000
    10  H    0.270400   0.000000
    11  C   -0.399913  -0.000000
    12  H    0.146393   0.000000
    13  H    0.150573   0.000000
    14  H    0.124114   0.000000
    15  C   -0.406271  -0.000000
    16  H    0.142391   0.000000
    17  H    0.160191   0.000000
    18  H    0.129764   0.000000
    19  C    0.062817  -0.000008
    20  C   -0.102740   0.000009
    21  C   -0.116068   0.000009
    22  C   -0.099085  -0.000009
    23  H    0.111339  -0.000001
    24  C   -0.102254  -0.000009
    25  H    0.111796  -0.000001
    26  C   -0.084963   0.000009
    27  H    0.109344   0.000001
    28  H    0.110077   0.000001
    29  H    0.111849  -0.000001
    30  C    0.040861  -0.000001
    31  C   -0.112836   0.000001
    32  C   -0.116935   0.000001
    33  C   -0.097579  -0.000001
    34  H    0.114617  -0.000000
    35  C   -0.091397  -0.000001
    36  H    0.112568  -0.000000
    37  C   -0.077106   0.000001
    38  H    0.109988   0.000000
    39  H    0.109825   0.000000
    40  H    0.111505  -0.000000
 Sum of Mulliken charges =  -0.00000  -0.00000

 Dipole moment (field-independent basis, Debye):
    X=             -9.7712    Y=              2.1429    Z=              0.1512  Tot=             10.0046
 Quadrupole moment (field-independent basis, Debye-Ang):
   XX=           -136.0271   YY=           -125.0118   ZZ=           -102.1660
   XY=              7.1016   XZ=              4.2619   YZ=              5.1626

 Normal termination of Gaussian 16 at Thu Jun 13 13:07:42 2019.
