 Gaussian 16, Revision B.01,
 Gaussian 16:  ES64L-G16RevB.01 20-Dec-2017

 ----------------------------------------------------------------------
 #p opt ub3lyp/6-31g(d,p) scrf=(iefpcm,solvent=acetonitrile) empiricald
 ispersion=gd3
 ----------------------------------------------------------------------

 -------------------
 Title Card Required
 -------------------
 Symbolic Z-matrix:
 Charge =  0 Multiplicity = 3

 SCF Done:  E(UB3LYP) =  -881.633030812     A.U. after   27 cycles
 SCF Done:  E(UB3LYP) =  -881.638392775     A.U. after   19 cycles
 SCF Done:  E(UB3LYP) =  -881.556653069     A.U. after   36 cycles
 SCF Done:  E(UB3LYP) =  -881.638605507     A.U. after   22 cycles
 SCF Done:  E(UB3LYP) =  -881.642376068     A.U. after   17 cycles
 SCF Done:  E(UB3LYP) =  -881.643888420     A.U. after   22 cycles
 SCF Done:  E(UB3LYP) =  -881.644505087     A.U. after   19 cycles
 SCF Done:  E(UB3LYP) =  -881.646902436     A.U. after   17 cycles
 SCF Done:  E(UB3LYP) =  -881.650859667     A.U. after   20 cycles
 SCF Done:  E(UB3LYP) =  -881.654184528     A.U. after   20 cycles
 SCF Done:  E(UB3LYP) =  -881.694247177     A.U. after   12 cycles
 SCF Done:  E(UB3LYP) =  -881.694250687     A.U. after   10 cycles
 SCF Done:  E(UB3LYP) =  -881.694252459     A.U. after   10 cycles
 SCF Done:  E(UB3LYP) =  -881.694254537     A.U. after   11 cycles
 SCF Done:  E(UB3LYP) =  -881.694256052     A.U. after    9 cycles
 SCF Done:  E(UB3LYP) =  -881.694257184     A.U. after    9 cycles
 SCF Done:  E(UB3LYP) =  -881.694257537     A.U. after    8 cycles
 SCF Done:  E(UB3LYP) =  -881.694258154     A.U. after    7 cycles
 SCF Done:  E(UB3LYP) =  -881.694258417     A.U. after    7 cycles
 SCF Done:  E(UB3LYP) =  -881.694258575     A.U. after    7 cycles
 Optimization completed.
    -- Stationary point found.

                         Standard orientation:
 ---------------------------------------------------------------------
 Center     Atomic      Atomic             Coordinates (Angstroms)
 Number     Number       Type             X           Y           Z
 ---------------------------------------------------------------------
      1          6           0        0.741529   -1.591203   -0.656490
      2          1           0        4.096607   -0.696128    1.164819
      3          6           0        1.363575    1.525908    0.751920
      4          8           0        2.264977    1.889477   -0.010080
      5          8           0        1.580825   -2.076151    0.297450
      6          7           0        4.363480   -0.036676   -0.599063
      7          1           0        4.220908   -0.247221   -1.579936
      8          7           0        4.099468   -1.077359    0.213555
      9          1           0        2.531672   -1.845600    0.102286
     10          1           0        4.022507    0.886666   -0.322225
     11          6           0        1.358637   -1.000728   -1.885761
     12          1           0        0.650246   -0.939188   -2.712405
     13          1           0        1.740448    0.012635   -1.698284
     14          1           0        2.202081   -1.617318   -2.219055
     15          6           0        1.696396    0.795542    2.033230
     16          1           0        1.118713    1.169139    2.881852
     17          1           0        1.468689   -0.269604    1.907121
     18          1           0        2.760416    0.912372    2.243410
     19          6           0       -0.648071   -1.660444   -0.374365
     20          6           0       -1.109181   -2.183890    0.871967
     21          6           0       -1.640762   -1.206344   -1.291660
     22          6           0       -2.463741   -2.250725    1.165247
     23          1           0       -0.379484   -2.531172    1.594146
     24          6           0       -2.990410   -1.282932   -0.983291
     25          1           0       -1.344736   -0.774147   -2.240926
     26          6           0       -3.422572   -1.806124    0.243983
     27          1           0       -2.781134   -2.652909    2.124083
     28          1           0       -3.719737   -0.920458   -1.702729
     29          1           0       -4.481097   -1.859418    0.478996
     30          6           0       -0.060953    1.784382    0.406551
     31          6           0       -0.348355    2.507429   -0.764346
     32          6           0       -1.121797    1.327303    1.206046
     33          6           0       -1.665340    2.779384   -1.120238
     34          1           0        0.477317    2.850506   -1.378067
     35          6           0       -2.439918    1.597561    0.845857
     36          1           0       -0.927745    0.739562    2.095057
     37          6           0       -2.713998    2.327352   -0.312198
     38          1           0       -1.877976    3.341772   -2.024377
     39          1           0       -3.252331    1.221858    1.458349
     40          1           0       -3.742645    2.535478   -0.591220
 ---------------------------------------------------------------------

 The electronic state is 3-A.
 Alpha  occ. eigenvalues --  -19.16477 -19.14755 -14.38830 -14.35970 -10.28466
 Alpha  occ. eigenvalues --  -10.24162 -10.20035 -10.19871 -10.19850 -10.19651
 Alpha  occ. eigenvalues --  -10.19455 -10.19329 -10.18738 -10.18615 -10.18423
 Alpha  occ. eigenvalues --  -10.18088 -10.18069 -10.17992 -10.17848 -10.17839
 Alpha  occ. eigenvalues --   -1.04600  -1.04243  -0.99320  -0.85975  -0.84382
 Alpha  occ. eigenvalues --   -0.77443  -0.77314  -0.75037  -0.74419  -0.73647
 Alpha  occ. eigenvalues --   -0.73006  -0.72094  -0.64347  -0.63056  -0.60618
 Alpha  occ. eigenvalues --   -0.59271  -0.56741  -0.55843  -0.54613  -0.51293
 Alpha  occ. eigenvalues --   -0.51101  -0.49502  -0.47968  -0.46555  -0.46252
 Alpha  occ. eigenvalues --   -0.45719  -0.45575  -0.44469  -0.43891  -0.42731
 Alpha  occ. eigenvalues --   -0.42477  -0.42246  -0.42114  -0.41071  -0.40383
 Alpha  occ. eigenvalues --   -0.39075  -0.38280  -0.37913  -0.37650  -0.35767
 Alpha  occ. eigenvalues --   -0.35630  -0.34801  -0.34490  -0.34434  -0.34008
 Alpha  occ. eigenvalues --   -0.32202  -0.30874  -0.26683  -0.26227  -0.25554
 Alpha  occ. eigenvalues --   -0.25287  -0.24511  -0.20071  -0.14062
 Alpha virt. eigenvalues --   -0.06126  -0.00528   0.00584   0.03375   0.03953
 Alpha virt. eigenvalues --    0.06924   0.09298   0.09883   0.10502   0.12750
 Alpha virt. eigenvalues --    0.13014   0.14471   0.14790   0.15674   0.16018

  Beta  occ. eigenvalues --  -19.16051 -19.14739 -14.38061 -14.34637 -10.28448
  Beta  occ. eigenvalues --  -10.23267 -10.20039 -10.19860 -10.19837 -10.19644
  Beta  occ. eigenvalues --  -10.19460 -10.19333 -10.18913 -10.18616 -10.18486
  Beta  occ. eigenvalues --  -10.18205 -10.18139 -10.17791 -10.17566 -10.17529
  Beta  occ. eigenvalues --   -1.04228  -1.03522  -0.97199  -0.85962  -0.84041
  Beta  occ. eigenvalues --   -0.77373  -0.76511  -0.75027  -0.73366  -0.73041
  Beta  occ. eigenvalues --   -0.71911  -0.71557  -0.63338  -0.63016  -0.60612
  Beta  occ. eigenvalues --   -0.59075  -0.56331  -0.55566  -0.54099  -0.51178
  Beta  occ. eigenvalues --   -0.50872  -0.48660  -0.47072  -0.46515  -0.46175
  Beta  occ. eigenvalues --   -0.45250  -0.45032  -0.44453  -0.43675  -0.42472
  Beta  occ. eigenvalues --   -0.42090  -0.41983  -0.41602  -0.40978  -0.39066
  Beta  occ. eigenvalues --   -0.38299  -0.37918  -0.36886  -0.35964  -0.35732
  Beta  occ. eigenvalues --   -0.34518  -0.34425  -0.34238  -0.33079  -0.32978
  Beta  occ. eigenvalues --   -0.31754  -0.28964  -0.26229  -0.26122  -0.25500
  Beta  occ. eigenvalues --   -0.24225  -0.23668
  Beta virt. eigenvalues --   -0.06638  -0.05969  -0.04599  -0.00498   0.01225
  Beta virt. eigenvalues --    0.03880   0.05975   0.07260   0.09603   0.10023
  Beta virt. eigenvalues --    0.10745   0.12960   0.13130   0.14561   0.15165

 Mulliken charges and spin densities:
               1          2
     1  C    0.245802   0.583427
     2  H    0.270366  -0.022151
     3  C    0.406693   0.011773
     4  O   -0.520175   0.004858
     5  O   -0.571790   0.116975
     6  N   -0.385849   0.333354
     7  H    0.300768  -0.009050
     8  N   -0.451587   0.664554
     9  H    0.358366   0.001024
    10  H    0.306791   0.001600
    11  C   -0.401636  -0.051994
    12  H    0.128100   0.004387
    13  H    0.136523   0.037685
    14  H    0.124059   0.018744
    15  C   -0.418850  -0.001193
    16  H    0.140197   0.000728
    17  H    0.165548   0.002953
    18  H    0.127387   0.000185
    19  C    0.099965  -0.146720
    20  C   -0.142109   0.222461
    21  C   -0.141386   0.218792
    22  C   -0.101997  -0.117069
    23  H    0.092249  -0.009834
    24  C   -0.099917  -0.114791
    25  H    0.084597  -0.009684
    26  C   -0.115053   0.250337
    27  H    0.088348   0.004196
    28  H    0.087710   0.004107
    29  H    0.085846  -0.011775
    30  C    0.055075  -0.003751
    31  C   -0.110612   0.006168
    32  C   -0.109445   0.009452
    33  C   -0.102311  -0.004185
    34  H    0.108977  -0.000236
    35  C   -0.084290  -0.004605
    36  H    0.108042  -0.000170
    37  C   -0.084353   0.009364
    38  H    0.106785   0.000153
    39  H    0.104976   0.000377
    40  H    0.108190  -0.000444
 Sum of Mulliken charges =  -0.00000   2.00000

 Dipole moment (field-independent basis, Debye):
    X=             -0.7977    Y=              3.2131    Z=             -0.0846  Tot=              3.3117
 Quadrupole moment (field-independent basis, Debye-Ang):
   XX=           -112.8491   YY=           -130.3700   ZZ=           -104.4253
   XY=             -0.6449   XZ=             -1.3020   YZ=             -1.7542

 Normal termination of Gaussian 16 at Thu May  9 00:54:07 2019.
