 Gaussian 16, Revision B.01,
 Gaussian 16:  ES64L-G16RevB.01 20-Dec-2017

 ----------------------------------------------------------------------
 #p td=(50-50,nstates=12) ub3lyp/6-31g(d,p) scrf=(iefpcm,solvent=aceton
 itrile) guess=(core,mix,always) empiricaldispersion=gd3
 ----------------------------------------------------------------------

 After the closed shell GS is optimized, find out which excited state w
 e need
 ----------------------------------------------------------------------
 Symbolic Z-matrix:
 Charge =  0 Multiplicity = 1

                         Standard orientation:
 ---------------------------------------------------------------------
 Center     Atomic      Atomic             Coordinates (Angstroms)
 Number     Number       Type             X           Y           Z
 ---------------------------------------------------------------------
      1          6           0        0.354292   -1.479367   -0.300682
      2          1           0        4.618022   -1.283283    1.298049
      3          6           0        1.789590    1.486036    0.313703
      4          8           0        2.516551    1.447090   -0.678564
      5          8           0        1.087393   -1.591673    0.682724
      6          7           0        4.641778   -0.832169   -0.640352
      7          1           0        4.542537   -1.382863   -1.490021
      8          7           0        4.216729   -1.684188    0.453524
      9          1           0        3.201097   -1.640852    0.567673
     10          1           0        4.015195   -0.029334   -0.735132
     11          6           0        0.944413   -1.344207   -1.686276
     12          1           0        0.596890   -2.155483   -2.333883
     13          1           0        0.629864   -0.399910   -2.139806
     14          1           0        2.031853   -1.359962   -1.621332
     15          6           0        2.344620    1.203121    1.691376
     16          1           0        2.133242    2.030138    2.376266
     17          1           0        1.877621    0.300528    2.095869
     18          1           0        3.421182    1.048234    1.619719
     19          6           0       -1.127817   -1.466906   -0.133755
     20          6           0       -1.661066   -1.665472    1.151099
     21          6           0       -2.000025   -1.243915   -1.210097
     22          6           0       -3.036203   -1.645070    1.355511
     23          1           0       -0.976966   -1.829640    1.976279
     24          6           0       -3.378972   -1.217805   -1.003288
     25          1           0       -1.611000   -1.079441   -2.208397
     26          6           0       -3.898430   -1.419016    0.276932
     27          1           0       -3.439469   -1.800289    2.351458
     28          1           0       -4.046348   -1.037619   -1.840128
     29          1           0       -4.972479   -1.398392    0.435704
     30          6           0        0.335793    1.789979    0.163553
     31          6           0       -0.151912    2.126260   -1.111322
     32          6           0       -0.562152    1.703684    1.238513
     33          6           0       -1.508064    2.360762   -1.308906
     34          1           0        0.551512    2.192584   -1.934174
     35          6           0       -1.922581    1.933380    1.038083
     36          1           0       -0.210412    1.435119    2.228133
     37          6           0       -2.397359    2.258132   -0.233613
     38          1           0       -1.876758    2.614901   -2.297804
     39          1           0       -2.612881    1.843333    1.870299
     40          1           0       -3.458570    2.425814   -0.389234
 ---------------------------------------------------------------------

 SCF Done:  E(UB3LYP) =  -881.758711641     A.U. after   23 cycles

 Excitation energies and oscillator strengths:

 Excited State   1:  3.000-A      3.2887 eV  377.01 nm  f=0.0000  <S**2>=2.000
     66A -> 75A       -0.16045
     66A -> 77A       -0.13749
     68A -> 75A       -0.28513
     69A -> 75A       -0.16737
     70A -> 74A       -0.43766
     70A -> 75A        0.11088
     71A -> 74A       -0.25095
     71A -> 76A        0.18112
     66B -> 75B        0.16045
     66B -> 77B        0.13749
     68B -> 75B        0.28513
     69B -> 75B        0.16737
     70B -> 74B        0.43766
     70B -> 75B       -0.11087
     71B -> 74B        0.25095
     71B -> 76B       -0.18112
 This state for optimization and/or second-order correction.
 Total Energy, E(TD-HF/TD-DFT) =  -881.637855872
 Copying the excited state density for this state as the 1-particle RhoCI density.

 Excited State   2:  3.000-A      3.3015 eV  375.53 nm  f=0.0000  <S**2>=2.000
     66A -> 74A       -0.16244
     66A -> 76A        0.13622
     67A -> 74A       -0.12947
     68A -> 74A       -0.33108
     69A -> 74A       -0.23416
     70A -> 75A       -0.38137
     71A -> 75A       -0.19585
     71A -> 77A       -0.17697
     66B -> 74B        0.16244
     66B -> 76B       -0.13622
     67B -> 74B        0.12947
     68B -> 74B        0.33108
     69B -> 74B        0.23416
     70B -> 75B        0.38137
     71B -> 75B        0.19584
     71B -> 77B        0.17697

 Excited State   3:  3.000-A      3.3498 eV  370.12 nm  f=0.0000  <S**2>=2.000
     67A -> 74A        0.40266
     68A -> 75A       -0.14983
     69A -> 75A        0.33824
     73A -> 74A       -0.37184
     67B -> 74B       -0.40265
     68B -> 75B        0.14983
     69B -> 75B       -0.33823
     73B -> 74B        0.37183

 Excited State   4:  3.000-A      3.3828 eV  366.51 nm  f=0.0000  <S**2>=2.000
     66A -> 74A       -0.12013
     67A -> 74A        0.11075
     67A -> 75A        0.33945
     68A -> 74A       -0.22251
     69A -> 74A        0.40559
     69A -> 75A       -0.16640
     73A -> 75A       -0.27135
     66B -> 74B        0.12013
     67B -> 74B       -0.11074
     67B -> 75B       -0.33944
     68B -> 74B        0.22251
     69B -> 74B       -0.40559
     69B -> 75B        0.16639
     73B -> 75B        0.27134

 Excited State   5:  1.000-A      3.7176 eV  333.51 nm  f=0.0027  <S**2>=0.000
     67A -> 74A       -0.28288
     69A -> 75A       -0.22248
     73A -> 74A        0.58797
     67B -> 74B       -0.28289
     69B -> 75B       -0.22248
     73B -> 74B        0.58798

 Excited State   6:  3.000-A      3.7969 eV  326.54 nm  f=0.0000  <S**2>=2.000
     66A -> 75A        0.23032
     68A -> 75A       -0.19599
     70A -> 74A       -0.24016
     71A -> 74A        0.56262
     66B -> 75B       -0.23032
     68B -> 75B        0.19600
     70B -> 74B        0.24016
     71B -> 74B       -0.56261

 Excited State   7:  1.000-A      3.8247 eV  324.17 nm  f=0.0008  <S**2>=0.000
     67A -> 75A        0.27205
     69A -> 74A        0.41823
     69A -> 75A       -0.16108
     70A -> 74A       -0.10113
     73A -> 75A       -0.41183
     67B -> 75B        0.27206
     69B -> 74B        0.41824
     69B -> 75B       -0.16108
     70B -> 74B       -0.10113
     73B -> 75B       -0.41183

 Excited State   8:  3.000-A      3.8889 eV  318.82 nm  f=0.0000  <S**2>=2.000
     66A -> 74A        0.34367
     68A -> 74A       -0.23700
     70A -> 75A       -0.18638
     71A -> 75A        0.50351
     66B -> 74B       -0.34367
     68B -> 74B        0.23700
     70B -> 75B        0.18638
     71B -> 75B       -0.50351

 Excited State   9:  3.000-A      3.9829 eV  311.29 nm  f=0.0000  <S**2>=2.000
     67A -> 74A        0.24843
     69A -> 75A        0.23645
     73A -> 74A        0.57426
     73A -> 75A       -0.15290
     67B -> 74B       -0.24842
     69B -> 75B       -0.23644
     73B -> 74B       -0.57425
     73B -> 75B        0.15289

 Excited State  10:  1.000-A      4.1123 eV  301.49 nm  f=0.0043  <S**2>=0.000
     67A -> 74A        0.35207
     69A -> 74A       -0.12966
     69A -> 75A        0.35729
     70A -> 74A        0.12205
     73A -> 74A        0.35875
     73A -> 75A       -0.22937
     67B -> 74B        0.35207
     69B -> 74B       -0.12969
     69B -> 75B        0.35730
     70B -> 74B        0.12206
     73B -> 74B        0.35876
     73B -> 75B       -0.22941

 Excited State  11:  3.000-A      4.1290 eV  300.28 nm  f=0.0000  <S**2>=2.000
     67A -> 74A        0.10073
     69A -> 74A        0.18570
     72A -> 74A        0.25959
     73A -> 74A        0.12615
     73A -> 75A        0.58971
     67B -> 74B       -0.10073
     69B -> 74B       -0.18566
     72B -> 74B       -0.25954
     73B -> 74B       -0.12616
     73B -> 75B       -0.58963

 Excited State  12:  1.000-A      4.1695 eV  297.36 nm  f=0.0051  <S**2>=0.000
     67A -> 74A        0.18150
     67A -> 75A        0.11784
     69A -> 74A        0.21899
     72A -> 74A        0.43422
     73A -> 74A        0.12170
     73A -> 75A        0.43473
     67B -> 74B        0.18151
     67B -> 75B        0.11786
     69B -> 74B        0.21901
     72B -> 74B        0.43425
     73B -> 74B        0.12172
     73B -> 75B        0.43481

 The electronic state is 1-A.
 Alpha  occ. eigenvalues --  -19.14931 -19.14675 -14.32312 -14.32135 -10.28641
 Alpha  occ. eigenvalues --  -10.28477 -10.20321 -10.20314 -10.20269 -10.20262
 Alpha  occ. eigenvalues --  -10.20183 -10.20160 -10.19918 -10.19870 -10.19752
 Alpha  occ. eigenvalues --  -10.19745 -10.19736 -10.19673 -10.18646 -10.18507
 Alpha  occ. eigenvalues --   -1.04568  -1.04280  -0.92380  -0.86436  -0.86128
 Alpha  occ. eigenvalues --   -0.77599  -0.77535  -0.75454  -0.75254  -0.73260
 Alpha  occ. eigenvalues --   -0.73044  -0.72922  -0.63260  -0.63134  -0.60962
 Alpha  occ. eigenvalues --   -0.60891  -0.55543  -0.55404  -0.51582  -0.51214
 Alpha  occ. eigenvalues --   -0.48117  -0.47462  -0.46695  -0.46646  -0.46305
 Alpha  occ. eigenvalues --   -0.46145  -0.45617  -0.44644  -0.44576  -0.43464
 Alpha  occ. eigenvalues --   -0.42763  -0.42689  -0.42655  -0.41992  -0.41847
 Alpha  occ. eigenvalues --   -0.39080  -0.39029  -0.38434  -0.37745  -0.36004
 Alpha  occ. eigenvalues --   -0.35981  -0.35685  -0.35165  -0.34730  -0.34686
 Alpha  occ. eigenvalues --   -0.26955  -0.26557  -0.26318  -0.26054  -0.25694
 Alpha  occ. eigenvalues --   -0.25095  -0.24253  -0.23079
 Alpha virt. eigenvalues --   -0.06591  -0.05797  -0.01268  -0.00593   0.03583
 Alpha virt. eigenvalues --    0.03695   0.07665   0.09752   0.09947   0.11055
 Alpha virt. eigenvalues --    0.12183   0.12800   0.14770   0.15190   0.15317

  Beta  occ. eigenvalues --  -19.14931 -19.14675 -14.32312 -14.32135 -10.28641
  Beta  occ. eigenvalues --  -10.28477 -10.20321 -10.20314 -10.20269 -10.20262
  Beta  occ. eigenvalues --  -10.20183 -10.20160 -10.19918 -10.19870 -10.19752
  Beta  occ. eigenvalues --  -10.19745 -10.19736 -10.19673 -10.18646 -10.18507
  Beta  occ. eigenvalues --   -1.04568  -1.04280  -0.92380  -0.86436  -0.86128
  Beta  occ. eigenvalues --   -0.77599  -0.77536  -0.75454  -0.75254  -0.73260
  Beta  occ. eigenvalues --   -0.73044  -0.72922  -0.63260  -0.63134  -0.60962
  Beta  occ. eigenvalues --   -0.60891  -0.55543  -0.55404  -0.51582  -0.51214
  Beta  occ. eigenvalues --   -0.48117  -0.47462  -0.46695  -0.46646  -0.46305
  Beta  occ. eigenvalues --   -0.46145  -0.45617  -0.44644  -0.44576  -0.43464
  Beta  occ. eigenvalues --   -0.42763  -0.42689  -0.42655  -0.41992  -0.41847
  Beta  occ. eigenvalues --   -0.39080  -0.39029  -0.38434  -0.37745  -0.36004
  Beta  occ. eigenvalues --   -0.35981  -0.35685  -0.35165  -0.34730  -0.34686
  Beta  occ. eigenvalues --   -0.26955  -0.26557  -0.26318  -0.26054  -0.25694
  Beta  occ. eigenvalues --   -0.25095  -0.24253  -0.23079
  Beta virt. eigenvalues --   -0.06591  -0.05797  -0.01268  -0.00593   0.03583
  Beta virt. eigenvalues --    0.03695   0.07665   0.09752   0.09947   0.11055
  Beta virt. eigenvalues --    0.12183   0.12800   0.14770   0.15190   0.15317

 Mulliken charges and spin densities:
               1          2
     1  C    0.403363   0.000002
     2  H    0.255037  -0.000000
     3  C    0.409154   0.000002
     4  O   -0.505828  -0.000002
     5  O   -0.503042  -0.000003
     6  N   -0.557097  -0.000000
     7  H    0.257364   0.000000
     8  N   -0.563584   0.000000
     9  H    0.271368   0.000000
    10  H    0.270400   0.000000
    11  C   -0.399913  -0.000000
    12  H    0.146393   0.000000
    13  H    0.150573   0.000000
    14  H    0.124114   0.000000
    15  C   -0.406271  -0.000000
    16  H    0.142391   0.000000
    17  H    0.160191   0.000000
    18  H    0.129764   0.000000
    19  C    0.062817  -0.000008
    20  C   -0.102740   0.000009
    21  C   -0.116068   0.000009
    22  C   -0.099085  -0.000009
    23  H    0.111339  -0.000001
    24  C   -0.102254  -0.000009
    25  H    0.111796  -0.000001
    26  C   -0.084963   0.000009
    27  H    0.109344   0.000001
    28  H    0.110077   0.000001
    29  H    0.111849  -0.000001
    30  C    0.040861  -0.000001
    31  C   -0.112836   0.000001
    32  C   -0.116935   0.000001
    33  C   -0.097579  -0.000001
    34  H    0.114617  -0.000000
    35  C   -0.091397  -0.000001
    36  H    0.112568  -0.000000
    37  C   -0.077106   0.000001
    38  H    0.109988   0.000000
    39  H    0.109825   0.000000
    40  H    0.111505  -0.000000
 Sum of Mulliken charges =  -0.00000   0.00000

 Dipole moment (field-independent basis, Debye):
    X=             -9.7712    Y=              2.1429    Z=              0.1512  Tot=             10.0046
 Quadrupole moment (field-independent basis, Debye-Ang):
   XX=           -136.0271   YY=           -125.0118   ZZ=           -102.1660
   XY=              7.1016   XZ=              4.2619   YZ=              5.1626

 Normal termination of Gaussian 16 at Fri May 10 00:07:57 2019.
