 Gaussian 16, Revision B.01,
 Gaussian 16:  ES64L-G16RevB.01 20-Dec-2017

 ----------------------------------------------------------------------
 #p opt td=(50-50,nstates=12,root=09) ub3lyp/6-31g(d,p) scrf=(iefpcm,so
 lvent=acetonitrile) guess=(core,mix,always) empiricaldispersion=gd3
 ----------------------------------------------------------------------

 -------------------
 Title Card Required
 -------------------
 Symbolic Z-matrix:
 Charge =  0 Multiplicity = 1

 SCF Done:  E(UB3LYP) =  -384.925582213     A.U. after   20 cycles
 Total Energy, E(TD-HF/TD-DFT) =  -384.727486464
 SCF Done:  E(UB3LYP) =  -384.912406089     A.U. after   24 cycles
 Total Energy, E(TD-HF/TD-DFT) =  -384.745044497
 SCF Done:  E(UB3LYP) =  -384.910666394     A.U. after   24 cycles
 Total Energy, E(TD-HF/TD-DFT) =  -384.745549764
 SCF Done:  E(UB3LYP) =  -384.914868262     A.U. after   24 cycles
 Total Energy, E(TD-HF/TD-DFT) =  -384.746983234
 SCF Done:  E(UB3LYP) =  -384.914227877     A.U. after   23 cycles
 Total Energy, E(TD-HF/TD-DFT) =  -384.747071574
 SCF Done:  E(UB3LYP) =  -384.914142174     A.U. after   24 cycles
 Total Energy, E(TD-HF/TD-DFT) =  -384.747077889
 SCF Done:  E(UB3LYP) =  -384.914160862     A.U. after   23 cycles

 Excitation energies and oscillator strengths:

 Excited State   1:  3.000-A      2.8284 eV  438.35 nm  f=0.0000  <S**2>=2.000
     32A -> 33A       -0.68988
     32A -> 35A        0.15333
     32B -> 33B        0.68987
     32B -> 35B       -0.15332

 Excited State   2:  3.000-A      2.9142 eV  425.45 nm  f=0.0000  <S**2>=2.000
     29A -> 33A       -0.14095
     29A -> 35A        0.11432
     30A -> 33A       -0.28954
     30A -> 34A       -0.17320
     31A -> 33A       -0.58901
     31A -> 34A        0.11200
     29B -> 33B        0.14095
     29B -> 35B       -0.11432
     30B -> 33B        0.28955
     30B -> 34B        0.17320
     31B -> 33B        0.58900
     31B -> 34B       -0.11200

 Excited State   3:  1.000-A      3.3612 eV  368.86 nm  f=0.0001  <S**2>=0.000
     32A -> 33A        0.69732
     32A -> 35A       -0.11429
     32B -> 33B        0.69733
     32B -> 35B       -0.11429

 Excited State   4:  3.000-A      3.6552 eV  339.20 nm  f=0.0000  <S**2>=2.000
     30A -> 33A       -0.61857
     31A -> 33A        0.31420
     30B -> 33B        0.61857
     31B -> 33B       -0.31421

 Excited State   5:  3.000-A      4.1542 eV  298.45 nm  f=0.0000  <S**2>=2.000
     29A -> 33A       -0.32682
     30A -> 34A        0.45881
     31A -> 34A       -0.33815
     31A -> 35A        0.16541
     29B -> 33B        0.32682
     30B -> 34B       -0.45880
     31B -> 34B        0.33815
     31B -> 35B       -0.16541

 Excited State   6:  1.000-A      4.3545 eV  284.73 nm  f=0.0467  <S**2>=0.000
     30A -> 33A       -0.54213
     31A -> 33A        0.41498
     31A -> 34A        0.15474
     30B -> 33B       -0.54213
     31B -> 33B        0.41499
     31B -> 34B        0.15473

 Excited State   7:  3.000-A      5.0272 eV  246.63 nm  f=0.0000  <S**2>=2.000
     30A -> 34A        0.38634
     31A -> 34A        0.57676
     30B -> 34B       -0.38634
     31B -> 34B       -0.57676

 Excited State   8:  1.000-A      4.6728 eV  265.33 nm  f=0.4727  <S**2>=0.000
     30A -> 33A        0.41752
     31A -> 33A        0.55998
     30B -> 33B        0.41753
     31B -> 33B        0.55997

 Excited State   9:  3.000-A      4.5465 eV  272.70 nm  f=0.0000  <S**2>=2.000
     29A -> 33A        0.51936
     29A -> 35A       -0.10789
     30A -> 34A        0.30993
     31A -> 33A       -0.18903
     31A -> 34A       -0.17102
     31A -> 35A       -0.18180
     29B -> 33B       -0.51936
     29B -> 35B        0.10789
     30B -> 34B       -0.30992
     31B -> 33B        0.18903
     31B -> 34B        0.17102
     31B -> 35B        0.18179
 This state for optimization and/or second-order correction.
 Total Energy, E(TD-HF/TD-DFT) =  -384.747078298
 Copying the excited state density for this state as the 1-particle RhoCI density.

 Excited State  10:  3.000-A      5.6680 eV  218.74 nm  f=0.0000  <S**2>=2.000
     32A -> 34A        0.70343
     32B -> 34B       -0.70338

 Excited State  11:  1.000-A      5.6887 eV  217.95 nm  f=0.0000  <S**2>=0.000
     32A -> 34A        0.70617
     32B -> 34B        0.70622

 Excited State  12:  1.000-A      5.9810 eV  207.30 nm  f=0.1596  <S**2>=0.000
     30A -> 33A       -0.15619
     30A -> 34A       -0.30901
     30A -> 35A        0.22811
     31A -> 34A       -0.54840
     31A -> 35A       -0.13738
     30B -> 33B       -0.15619
     30B -> 34B       -0.30902
     30B -> 35B        0.22810
     31B -> 34B       -0.54840
     31B -> 35B       -0.13738

 Optimization completed.
    -- Stationary point found.

                         Standard orientation:
 ---------------------------------------------------------------------
 Center     Atomic      Atomic             Coordinates (Angstroms)
 Number     Number       Type             X           Y           Z
 ---------------------------------------------------------------------
      1          6           0       -1.696877   -0.159192   -0.000492
      2          8           0       -2.282020   -1.341586    0.000814
      3          6           0       -2.548683    1.067799   -0.000068
      4          1           0       -2.342228    1.701295    0.876078
      5          1           0       -2.342392    1.701864   -0.875808
      6          1           0       -3.601948    0.786558    0.000010
      7          6           0       -0.218548   -0.047984   -0.000332
      8          6           0        0.569682   -1.230305   -0.000203
      9          6           0        0.440734    1.209548   -0.000169
     10          6           0        1.973028   -1.168050   -0.000014
     11          1           0        0.062241   -2.187969   -0.000275
     12          6           0        1.849581    1.280460    0.000025
     13          1           0       -0.129629    2.130841   -0.000132
     14          6           0        2.630957    0.094699    0.000101
     15          1           0        2.557511   -2.081841    0.000062
     16          1           0        2.339545    2.248317    0.000150
     17          1           0        3.713825    0.151764    0.000304
 ---------------------------------------------------------------------

 The electronic state is 1-A.
 Alpha  occ. eigenvalues --  -19.13793 -10.28800 -10.21207 -10.21083 -10.21052
 Alpha  occ. eigenvalues --  -10.20567 -10.20528 -10.20441 -10.19153  -0.99050
 Alpha  occ. eigenvalues --   -0.85734  -0.77702  -0.75188  -0.73276  -0.63417
 Alpha  occ. eigenvalues --   -0.60921  -0.55533  -0.51244  -0.46593  -0.45992
 Alpha  occ. eigenvalues --   -0.44711  -0.43657  -0.42719  -0.40774  -0.39012
 Alpha  occ. eigenvalues --   -0.37473  -0.36103  -0.34761  -0.33489  -0.26178
 Alpha  occ. eigenvalues --   -0.25827  -0.25393
 Alpha virt. eigenvalues --   -0.07326  -0.01446   0.02618   0.09277   0.11874
 Alpha virt. eigenvalues --    0.14507   0.14863   0.15022   0.16434   0.17826
 Alpha virt. eigenvalues --    0.18480   0.19596   0.22362   0.25105   0.27469

  Beta  occ. eigenvalues --  -19.13793 -10.28800 -10.21207 -10.21083 -10.21052
  Beta  occ. eigenvalues --  -10.20567 -10.20528 -10.20441 -10.19153  -0.99050
  Beta  occ. eigenvalues --   -0.85734  -0.77702  -0.75188  -0.73276  -0.63417
  Beta  occ. eigenvalues --   -0.60921  -0.55533  -0.51244  -0.46593  -0.45992
  Beta  occ. eigenvalues --   -0.44711  -0.43657  -0.42719  -0.40774  -0.39012
  Beta  occ. eigenvalues --   -0.37473  -0.36103  -0.34761  -0.33489  -0.26178
  Beta  occ. eigenvalues --   -0.25827  -0.25393
  Beta virt. eigenvalues --   -0.07326  -0.01446   0.02618   0.09277   0.11874
  Beta virt. eigenvalues --    0.14507   0.14863   0.15022   0.16434   0.17826
  Beta virt. eigenvalues --    0.18480   0.19596   0.22362   0.25105   0.27469

 Mulliken charges and spin densities:
               1          2
     1  C    0.383912   0.000001
     2  O   -0.554253  -0.000002
     3  C   -0.394852  -0.000000
     4  H    0.152195   0.000000
     5  H    0.152103   0.000000
     6  H    0.138066   0.000000
     7  C    0.059547  -0.000002
     8  C   -0.104549   0.000002
     9  C   -0.124561   0.000001
    10  C   -0.101968  -0.000002
    11  H    0.116329  -0.000000
    12  C   -0.105278  -0.000001
    13  H    0.117428   0.000000
    14  C   -0.086280   0.000002
    15  H    0.115764   0.000000
    16  H    0.116137   0.000000
    17  H    0.120262  -0.000000
 Sum of Mulliken charges =  -0.00000  -0.00000

 Dipole moment (field-independent basis, Debye):
    X=              3.0309    Y=              3.6484    Z=             -0.0018  Tot=              4.7431
 Quadrupole moment (field-independent basis, Debye-Ang):
   XX=            -50.1492   YY=            -49.3528   ZZ=            -54.3413
   XY=             -8.5826   XZ=              0.0055   YZ=              0.0038

 Normal termination of Gaussian 16 at Fri May 10 12:44:49 2019.
