 Gaussian 16, Revision B.01,
 Gaussian 16:  ES64L-G16RevB.01 20-Dec-2017

 ----------------------------------------------------------------------
 #p opt freq rb3lyp/6-31g(d,p) scrf=(iefpcm,solvent=acetonitrile) empir
 icaldispersion=gd3
 ----------------------------------------------------------------------

 -------------------
 Title Card Required
 -------------------
 Symbolic Z-matrix:
 Charge =  0 Multiplicity = 1

 SCF Done:  E(RB3LYP) =  -384.925130620     A.U. after   12 cycles
 SCF Done:  E(RB3LYP) =  -384.925247088     A.U. after   10 cycles
 SCF Done:  E(RB3LYP) =  -384.925309736     A.U. after   11 cycles
 SCF Done:  E(RB3LYP) =  -384.925523609     A.U. after   10 cycles
 SCF Done:  E(RB3LYP) =  -384.925571479     A.U. after   10 cycles
 SCF Done:  E(RB3LYP) =  -384.925581848     A.U. after    9 cycles
 SCF Done:  E(RB3LYP) =  -384.925582213     A.U. after    8 cycles
 Optimization completed.
    -- Stationary point found.
 Normal termination of Gaussian 16 at Wed May  8 21:49:35 2019.

 ----------------------------------------------------------------------
 #P Geom=AllCheck Guess=TCheck SCRF=Check GenChk RB3LYP/6-31G(d,p) Freq
 ----------------------------------------------------------------------

 Structure from the checkpoint file:  "Ketone.chk"
 -------------------
 Title Card Required
 -------------------
 Charge =  0 Multiplicity = 1

                         Standard orientation:
 ---------------------------------------------------------------------
 Center     Atomic      Atomic             Coordinates (Angstroms)
 Number     Number       Type             X           Y           Z
 ---------------------------------------------------------------------
      1          6           0       -1.697308   -0.201402   -0.000018
      2          8           0       -2.217905   -1.312239   -0.000029
      3          6           0       -2.553274    1.049452   -0.000024
      4          1           0       -2.343318    1.663518    0.882011
      5          1           0       -2.342868    1.663956   -0.881626
      6          1           0       -3.604616    0.761060   -0.000401
      7          6           0       -0.206967   -0.056710    0.000057
      8          6           0        0.578022   -1.222025    0.000049
      9          6           0        0.428351    1.195472    0.000075
     10          6           0        1.966970   -1.139173   -0.000003
     11          1           0        0.075953   -2.183491    0.000004
     12          6           0        1.820979    1.278019   -0.000002
     13          1           0       -0.155236    2.109523   -0.000039
     14          6           0        2.591420    0.112896   -0.000029
     15          1           0        2.565010   -2.045346   -0.000081
     16          1           0        2.303854    2.250264   -0.000141
     17          1           0        3.675304    0.179252   -0.000125
 ---------------------------------------------------------------------

 SCF Done:  E(RB3LYP) =  -384.925582213     A.U. after    1 cycles

 The electronic state is 1-A.
 Alpha  occ. eigenvalues --  -19.14107 -10.28144 -10.20331 -10.20275 -10.20193
 Alpha  occ. eigenvalues --  -10.19878 -10.19825 -10.19759 -10.18673  -1.03876
 Alpha  occ. eigenvalues --   -0.86248  -0.77402  -0.75333  -0.72999  -0.63031
 Alpha  occ. eigenvalues --   -0.60900  -0.55296  -0.51197  -0.46619  -0.46038
 Alpha  occ. eigenvalues --   -0.44673  -0.44221  -0.42713  -0.41729  -0.39039
 Alpha  occ. eigenvalues --   -0.37920  -0.35933  -0.35408  -0.34693  -0.26179
 Alpha  occ. eigenvalues --   -0.25928  -0.25469
 Alpha virt. eigenvalues --   -0.05846  -0.00946   0.03844   0.09316   0.12002
 Alpha virt. eigenvalues --    0.14866   0.15453   0.15974   0.16665   0.18196
 Alpha virt. eigenvalues --    0.18907   0.20011   0.22307   0.26748   0.28928

 Mulliken charges:
               1
     1  C    0.395655
     2  O   -0.500951
     3  C   -0.401543
     4  H    0.147817
     5  H    0.147801
     6  H    0.131130
     7  C    0.046852
     8  C   -0.108694
     9  C   -0.126996
    10  C   -0.099666
    11  H    0.111489
    12  C   -0.103824
    13  H    0.112182
    14  C   -0.086075
    15  H    0.110575
    16  H    0.111473
    17  H    0.112777
 Sum of Mulliken charges =  -0.00000

 Dipole moment (field-independent basis, Debye):
    X=              2.4229    Y=              3.1682    Z=             -0.0002  Tot=              3.9885
 Quadrupole moment (field-independent basis, Debye-Ang):
   XX=            -49.8806   YY=            -49.5182   ZZ=            -53.9894
   XY=             -7.3140   XZ=             -0.0008   YZ=             -0.0002

  Exact polarizability: 150.259   3.798 124.381  -0.001   0.000  43.639
 Approx polarizability: 177.409  12.265 161.853  -0.002   0.001  54.812

                      1                      2                      3
                      A                      A                      A
 Frequencies --     61.4748               153.5077               181.1399
 Red. masses --      4.0300                 4.1878                 1.0477
 Frc consts  --      0.0090                 0.0581                 0.0203
 IR Inten    --      4.5116                 0.1141                 0.6361

                      4                      5                      6
                      A                      A                      A
 Frequencies --    231.0419               374.8193               413.5308
 Red. masses --      3.9364                 4.6596                 2.9311
 Frc consts  --      0.1238                 0.3857                 0.2953
 IR Inten    --      7.8777                 1.2986                 0.0028

                      7                      8                      9
                      A                      A                      A
 Frequencies --    431.8786               469.5484               597.9076
 Red. masses --      3.3585                 4.5268                 4.4913
 Frc consts  --      0.3691                 0.5880                 0.9460
 IR Inten    --      0.0193                 1.2064                41.9306

                     10                     11                     12
                      A                      A                      A
 Frequencies --    603.9536               629.7564               704.3354
 Red. masses --      2.4228                 6.4343                 1.9135
 Frc consts  --      0.5207                 1.5035                 0.5593
 IR Inten    --     12.9438                 1.5336                35.4640

                     13                     14                     15
                      A                      A                      A
 Frequencies --    744.3933               778.5429               866.6412
 Red. masses --      5.0597                 1.6553                 1.2496
 Frc consts  --      1.6519                 0.5911                 0.5530
 IR Inten    --      0.9693                39.3175                 0.0219

                     16                     17                     18
                      A                      A                      A
 Frequencies --    952.1156               966.2871               993.0903
 Red. masses --      1.3421                 2.2022                 1.3609
 Frc consts  --      0.7168                 1.2115                 0.7908
 IR Inten    --      3.4053                50.7230                 0.1250

                     19                     20                     21
                      A                      A                      A
 Frequencies --   1014.5376              1015.8875              1046.3347
 Red. masses --      6.0846                 1.2938                 1.8918
 Frc consts  --      3.6899                 0.7867                 1.2203
 IR Inten    --      1.3194                 0.2557                 2.7985

                     22                     23                     24
                      A                      A                      A
 Frequencies --   1049.9012              1099.5394              1118.6551
 Red. masses --      2.5543                 2.1294                 1.5501
 Frc consts  --      1.6589                 1.5168                 1.1429
 IR Inten    --      6.9385                 2.1551                10.7523

                     25                     26                     27
                      A                      A                      A
 Frequencies --   1193.1573              1212.3069              1284.7447
 Red. masses --      1.1044                 1.1469                 3.4397
 Frc consts  --      0.9264                 0.9932                 3.3451
 IR Inten    --      2.0687                28.1732               304.0297

                     28                     29                     30
                      A                      A                      A
 Frequencies --   1345.4749              1365.5327              1393.9602
 Red. masses --      1.8311                 2.9360                 1.3352
 Frc consts  --      1.9530                 3.2256                 1.5286
 IR Inten    --      8.1194                 5.9585                74.1436

                     31                     32                     33
                      A                      A                      A
 Frequencies --   1475.6714              1480.9257              1487.3051
 Red. masses --      1.0627                 1.0458                 2.2576
 Frc consts  --      1.3635                 1.3514                 2.9423
 IR Inten    --     17.0397                12.0708                29.6758

                     34                     35                     36
                      A                      A                      A
 Frequencies --   1533.6670              1631.6097              1651.7980
 Red. masses --      2.1567                 5.4003                 5.4340
 Frc consts  --      2.9889                 8.4704                 8.7354
 IR Inten    --      2.0290                18.0471                49.4599

                     37                     38                     39
                      A                      A                      A
 Frequencies --   1751.4033              3051.0795              3116.6921
 Red. masses --     10.6094                 1.0375                 1.1003
 Frc consts  --     19.1741                 5.6902                 6.2972
 IR Inten    --    325.2907                 1.7064                 7.9888

                     40                     41                     42
                      A                      A                      A
 Frequencies --   3166.2512              3186.3179              3196.0131
 Red. masses --      1.1031                 1.0861                 1.0894
 Frc consts  --      6.5157                 6.4969                 6.5562
 IR Inten    --     21.6139                 0.2653                13.2709

                     43                     44                     45
                      A                      A                      A
 Frequencies --   3205.8155              3216.1683              3218.8833
 Red. masses --      1.0933                 1.0930                 1.0959
 Frc consts  --      6.6200                 6.6613                 6.6904
 IR Inten    --     28.7035                26.4962                 6.5228

 - Thermochemistry -
 -------------------
 Temperature   298.150 Kelvin.  Pressure   1.00000 Atm.
 Atom     1 has atomic number  6 and mass  12.00000

 Molecular mass:   120.05751 amu.
 Principal axes and moments of inertia in atomic units:
                           1         2         3
     Eigenvalues --   491.060291488.227241968.09311
           X            0.99931  -0.03703  -0.00000
           Y            0.03703   0.99931  -0.00000
           Z            0.00000   0.00000   1.00000
 This molecule is an asymmetric top.
 Rotational symmetry number  1.
 Warning -- assumption of classical behavior for rotation
           may cause significant error
 Rotational temperatures (Kelvin)      0.17638     0.05820     0.04401
 Rotational constants (GHZ):           3.67519     1.21268     0.91700
 Zero-point vibrational energy     362848.9 (Joules/Mol)
                                   86.72297 (Kcal/Mol)
 Warning -- explicit consideration of  10 degrees of freedom as
           vibrations may cause significant error
 Vibrational temperatures:     88.45   220.86   260.62   332.42   539.28
          (Kelvin)            594.98   621.38   675.58   860.26   868.95
                              906.08  1013.38  1071.02  1120.15  1246.90
                             1369.88  1390.27  1428.84  1459.69  1461.64
                             1505.44  1510.57  1581.99  1609.50  1716.69
                             1744.24  1848.46  1935.84  1964.70  2005.60
                             2123.16  2130.72  2139.90  2206.60  2347.52
                             2376.57  2519.88  4389.82  4484.22  4555.53
                             4584.40  4598.35  4612.45  4627.35  4631.26

 Zero-point correction=                           0.138202 (Hartree/Particle)
 Thermal correction to Energy=                    0.145963
 Thermal correction to Enthalpy=                  0.146907
 Thermal correction to Gibbs Free Energy=         0.105545
 Sum of electronic and zero-point Energies=           -384.787380
 Sum of electronic and thermal Energies=              -384.779620
 Sum of electronic and thermal Enthalpies=            -384.778675
 Sum of electronic and thermal Free Energies=         -384.820038

                     E (Thermal)             CV                S
                      KCal/Mol        Cal/Mol-Kelvin    Cal/Mol-Kelvin
 Total                   91.593             29.504             87.054
 Electronic               0.000              0.000              0.000
 Translational            0.889              2.981             40.263
 Rotational               0.889              2.981             28.755
 Vibrational             89.815             23.543             18.036
 Vibration     1          0.597              1.973              4.409
 Vibration     2          0.619              1.899              2.628
 Vibration     3          0.630              1.865              2.317
 Vibration     4          0.653              1.794              1.871
 Vibration     5          0.746              1.524              1.060
 Vibration     6          0.777              1.441              0.914
 Vibration     7          0.793              1.401              0.853
 Vibration     8          0.827              1.318              0.739
 Vibration     9          0.956              1.036              0.453
 Vibration    10          0.962              1.023              0.443

 Optimization completed.
    -- Stationary point found.
 Normal termination of Gaussian 16 at Wed May  8 21:50:14 2019.
