 Gaussian 16, Revision B.01,
 Gaussian 16:  ES64L-G16RevB.01 20-Dec-2017

 ----------------------------------------------------------------------
 #p opt freq b3lyp/6-31g(d,p) scrf=(iefpcm,solvent=acetonitrile) empiri
 caldispersion=gd3
 ----------------------------------------------------------------------

 -------------------
 Title Card Required
 -------------------
 Symbolic Z-matrix:
 Charge =  0 Multiplicity = 1

 SCF Done:  E(RB3LYP) =  -111.874032931     A.U. after    9 cycles
 SCF Done:  E(RB3LYP) =  -111.874849242     A.U. after    9 cycles
 SCF Done:  E(RB3LYP) =  -111.849068418     A.U. after   10 cycles
 SCF Done:  E(RB3LYP) =  -111.876768291     A.U. after    9 cycles
 SCF Done:  E(RB3LYP) =  -111.877217945     A.U. after    9 cycles
 SCF Done:  E(RB3LYP) =  -111.877318688     A.U. after    8 cycles
 SCF Done:  E(RB3LYP) =  -111.877372705     A.U. after    8 cycles
 SCF Done:  E(RB3LYP) =  -111.877372912     A.U. after    7 cycles
 Optimization completed.
    -- Stationary point found.
 Normal termination of Gaussian 16 at Wed May  8 21:49:06 2019.

 ----------------------------------------------------------------------
 #P Geom=AllCheck Guess=TCheck SCRF=Check GenChk RB3LYP/6-31G(d,p) Freq
 ----------------------------------------------------------------------

 Structure from the checkpoint file:  "Hydrazine.chk"
 -------------------
 Title Card Required
 -------------------
 Charge =  0 Multiplicity = 1

                         Standard orientation:
 ---------------------------------------------------------------------
 Center     Atomic      Atomic             Coordinates (Angstroms)
 Number     Number       Type             X           Y           Z
 ---------------------------------------------------------------------
      1          1           0        1.133754    0.813903   -0.239772
      2          7           0       -0.715932    0.100785   -0.085028
      3          1           0       -1.133800   -0.813721   -0.240263
      4          7           0        0.715874   -0.100712   -0.085120
      5          1           0        1.041780   -0.401476    0.835287
      6          1           0       -1.041327    0.400785    0.835786
 ---------------------------------------------------------------------

 SCF Done:  E(RB3LYP) =  -111.877372912     A.U. after    1 cycles

 The electronic state is 1-A.
 Alpha  occ. eigenvalues --  -14.33636 -14.33624  -0.93757  -0.74271  -0.48784
 Alpha  occ. eigenvalues --   -0.48185  -0.43686  -0.25391  -0.24562
 Alpha virt. eigenvalues --    0.08356   0.11211   0.16092   0.17801   0.22696
 Alpha virt. eigenvalues --    0.67096   0.67841   0.69070   0.70655   0.73099
 Alpha virt. eigenvalues --    0.83435   0.84672   0.89306   0.89481   0.92797

 Mulliken charges:
               1
     1  H    0.267852
     2  N   -0.524225
     3  H    0.267870
     4  N   -0.524288
     5  H    0.256388
     6  H    0.256404
 Sum of Mulliken charges =  -0.00000

 Dipole moment (field-independent basis, Debye):
    X=              0.0003    Y=             -0.0012    Z=              2.6502  Tot=              2.6502
 Quadrupole moment (field-independent basis, Debye-Ang):
   XX=            -12.0245   YY=            -12.5418   ZZ=            -12.9228
   XY=              2.7504   XZ=              0.0014   YZ=             -0.0000

  Exact polarizability:  21.908   1.675  16.055   0.002  -0.000  15.296
 Approx polarizability:  23.107   1.526  17.787   0.003  -0.000  17.058

                      1                      2                      3
                      A                      A                      A
 Frequencies --    406.8851               866.7245              1058.5823
 Red. masses --      1.0481                 2.4042                 1.1502
 Frc consts  --      0.1022                 1.0641                 0.7594
 IR Inten    --     65.3023                71.6101               169.1075

                      4                      5                      6
                      A                      A                      A
 Frequencies --   1130.3892              1304.3368              1359.0564
 Red. masses --      1.6144                 1.1953                 1.2188
 Frc consts  --      1.2154                 1.1981                 1.3263
 IR Inten    --     23.5488                11.9302                 6.4476

                      7                      8                      9
                      A                      A                      A
 Frequencies --   1673.9638              1686.2768              3427.8544
 Red. masses --      1.0853                 1.0514                 1.0552
 Frc consts  --      1.7918                 1.7614                 7.3052
 IR Inten    --     17.6724                18.4480                22.2613

                     10                     11                     12
                      A                      A                      A
 Frequencies --   3441.2439              3538.7493              3549.0595
 Red. masses --      1.0525                 1.0912                 1.0872
 Frc consts  --      7.3435                 8.0507                 8.0684
 IR Inten    --      1.9906                 0.5060                 0.0387

 - Thermochemistry -
 -------------------
 Temperature   298.150 Kelvin.  Pressure   1.00000 Atm.
 Atom     1 has atomic number  1 and mass   1.00783

 Molecular mass:    32.03745 amu.
 Principal axes and moments of inertia in atomic units:
                           1         2         3
     Eigenvalues --    12.74031  74.53486  75.25956
           X            0.99832   0.05802   0.00002
           Y           -0.05802   0.99832  -0.00007
           Z           -0.00003   0.00007   1.00000
 This molecule is an asymmetric top.
 Rotational symmetry number  1.
 Rotational temperatures (Kelvin)      6.79841     1.16206     1.15087
 Rotational constants (GHZ):         141.65594    24.21338    23.98023
 Zero-point vibrational energy     140221.0 (Joules/Mol)
                                   33.51363 (Kcal/Mol)
 Warning -- explicit consideration of   1 degrees of freedom as
           vibrations may cause significant error
 Vibrational temperatures:    585.42  1247.02  1523.06  1626.38  1876.65
          (Kelvin)           1955.38  2408.46  2426.18  4931.92  4951.18
                             5091.47  5106.31

 Zero-point correction=                           0.053407 (Hartree/Particle)
 Thermal correction to Energy=                    0.056680
 Thermal correction to Enthalpy=                  0.057624
 Thermal correction to Gibbs Free Energy=         0.030770
 Sum of electronic and zero-point Energies=           -111.823966
 Sum of electronic and thermal Energies=              -111.820693
 Sum of electronic and thermal Enthalpies=            -111.819749
 Sum of electronic and thermal Free Energies=         -111.846603

                     E (Thermal)             CV                S
                      KCal/Mol        Cal/Mol-Kelvin    Cal/Mol-Kelvin
 Total                   35.567              8.883             56.518
 Electronic               0.000              0.000              0.000
 Translational            0.889              2.981             36.325
 Rotational               0.889              2.981             18.908
 Vibrational             33.790              2.921              1.285
 Vibration     1          0.772              1.455              0.938

 Optimization completed.
    -- Stationary point found.
 Normal termination of Gaussian 16 at Wed May  8 21:49:15 2019.
