 Gaussian 16, Revision B.01,
 Gaussian 16:  ES64L-G16RevB.01 20-Dec-2017

 ----------------------------------------------------------------------
 #p opt td=(50-50,nstates=12,root=1) ub3lyp/6-31g(d,p) scrf=(iefpcm,sol
 vent=acetonitrile) guess=(core,mix,always) empiricaldispersion=gd3
 ----------------------------------------------------------------------

 -------------------
 Title Card Required
 -------------------
 Symbolic Z-matrix:
 Charge =  0 Multiplicity = 1

 SCF Done:  E(UB3LYP) =  -384.925582213     A.U. after   20 cycles
 Total Energy, E(TD-HF/TD-DFT) =  -384.803906841
 SCF Done:  E(UB3LYP) =  -384.921166285     A.U. after   22 cycles
 Total Energy, E(TD-HF/TD-DFT) =  -384.813151895
 SCF Done:  E(UB3LYP) =  -384.910652409     A.U. after   22 cycles
 Total Energy, E(TD-HF/TD-DFT) =  -384.815815215
 SCF Done:  E(UB3LYP) =  -384.911193006     A.U. after   24 cycles
 Total Energy, E(TD-HF/TD-DFT) =  -384.815942726
 SCF Done:  E(UB3LYP) =  -384.911112809     A.U. after   24 cycles
 Total Energy, E(TD-HF/TD-DFT) =  -384.815954915
 SCF Done:  E(UB3LYP) =  -384.911117288     A.U. after   24 cycles

 Excitation energies and oscillator strengths:

 Excited State   1:  3.000-A      2.5895 eV  478.80 nm  f=0.0000  <S**2>=2.000
     32A -> 33A       -0.69114
     32A -> 35A        0.14877
     32B -> 33B        0.69114
     32B -> 35B       -0.14877
 This state for optimization and/or second-order correction.
 Total Energy, E(TD-HF/TD-DFT) =  -384.815955951
 Copying the excited state density for this state as the 1-particle RhoCI density.

 Excited State   2:  3.000-A      2.7992 eV  442.93 nm  f=0.0000  <S**2>=2.000
     29A -> 33A       -0.12323
     29A -> 35A        0.11443
     30A -> 33A        0.11948
     30A -> 34A       -0.15877
     31A -> 33A        0.66620
     29B -> 33B        0.12323
     29B -> 35B       -0.11443
     30B -> 33B       -0.11948
     30B -> 34B        0.15877
     31B -> 33B       -0.66620
     31A <- 33A        0.10690
     31B <- 33B       -0.10690

 Excited State   3:  1.000-A      3.1038 eV  399.46 nm  f=0.0001  <S**2>=0.000
     32A -> 33A        0.69870
     32A -> 35A       -0.10683
     32B -> 33B        0.69870
     32B -> 35B       -0.10683

 Excited State   4:  3.000-A      3.6622 eV  338.55 nm  f=0.0000  <S**2>=2.000
     30A -> 33A        0.68638
     31A -> 33A       -0.12571
     30B -> 33B       -0.68638
     31B -> 33B        0.12571

 Excited State   5:  3.000-A      4.3269 eV  286.54 nm  f=0.0000  <S**2>=2.000
     29A -> 33A       -0.37300
     30A -> 34A        0.51215
     31A -> 34A       -0.18581
     31A -> 35A       -0.19664
     29B -> 33B        0.37300
     30B -> 34B       -0.51215
     31B -> 34B        0.18581
     31B -> 35B        0.19664

 Excited State   6:  1.000-A      4.4371 eV  279.42 nm  f=0.0571  <S**2>=0.000
     30A -> 33A        0.62400
     31A -> 33A       -0.27356
     31A -> 34A        0.18059
     30B -> 33B        0.62400
     31B -> 33B       -0.27356
     31B -> 34B        0.18059

 Excited State   7:  3.000-A      4.6633 eV  265.87 nm  f=0.0000  <S**2>=2.000
     29A -> 33A       -0.50164
     30A -> 34A       -0.39648
     31A -> 33A       -0.18822
     31A -> 34A        0.10774
     31A -> 35A       -0.16874
     29B -> 33B        0.50164
     30B -> 34B        0.39648
     31B -> 33B        0.18823
     31B -> 34B       -0.10774
     31B -> 35B        0.16874

 Excited State   8:  1.000-A      4.7085 eV  263.32 nm  f=0.5346  <S**2>=0.000
     30A -> 33A       -0.26798
     31A -> 33A       -0.64508
     30B -> 33B       -0.26798
     31B -> 33B       -0.64508

 Excited State   9:  3.000-A      5.1585 eV  240.35 nm  f=0.0000  <S**2>=2.000
     30A -> 34A        0.21455
     31A -> 34A        0.66179
     30B -> 34B       -0.21455
     31B -> 34B       -0.66179

 Excited State  10:  3.000-A      5.5150 eV  224.81 nm  f=0.0000  <S**2>=2.000
     32A -> 34A       -0.70382
     32B -> 34B        0.70379

 Excited State  11:  1.000-A      5.5305 eV  224.18 nm  f=0.0000  <S**2>=0.000
     32A -> 34A       -0.70656
     32B -> 34B       -0.70658

 Excited State  12:  3.000-A      5.8443 eV  212.15 nm  f=0.0000  <S**2>=2.000
     24A -> 33A       -0.10911
     25A -> 33A        0.11922
     27A -> 33A       -0.11444
     28A -> 33A        0.66705
     24B -> 33B        0.10911
     25B -> 33B       -0.11922
     27B -> 33B        0.11444
     28B -> 33B       -0.66705

 Optimization completed.
    -- Stationary point found.

                         Standard orientation:
 ---------------------------------------------------------------------
 Center     Atomic      Atomic             Coordinates (Angstroms)
 Number     Number       Type             X           Y           Z
 ---------------------------------------------------------------------
      1          6           0       -1.630416   -0.151569   -0.000002
      2          8           0       -2.257094   -1.306454    0.001024
      3          6           0       -2.591426    1.019884   -0.000261
      4          1           0       -2.432065    1.636384    0.891087
      5          1           0       -2.430740    1.636870   -0.891015
      6          1           0       -3.626242    0.672551   -0.001117
      7          6           0       -0.218180   -0.063721   -0.000088
      8          6           0        0.596241   -1.237519   -0.000175
      9          6           0        0.435642    1.203713    0.000011
     10          6           0        1.978704   -1.134568   -0.000234
     11          1           0        0.125704   -2.215960   -0.000354
     12          6           0        1.820949    1.278703   -0.000101
     13          1           0       -0.150581    2.116370    0.000186
     14          6           0        2.609122    0.118627   -0.000198
     15          1           0        2.578110   -2.040932   -0.000350
     16          1           0        2.296935    2.255474   -0.000082
     17          1           0        3.691810    0.189575   -0.000257
 ---------------------------------------------------------------------

 The electronic state is 1-A.
 Alpha  occ. eigenvalues --  -19.12846 -10.27800 -10.21058 -10.21012 -10.20944
 Alpha  occ. eigenvalues --  -10.20757 -10.20228 -10.20179 -10.18707  -0.98931
 Alpha  occ. eigenvalues --   -0.86527  -0.78058  -0.75814  -0.72794  -0.64571
 Alpha  occ. eigenvalues --   -0.61060  -0.55814  -0.51149  -0.46900  -0.45960
 Alpha  occ. eigenvalues --   -0.44485  -0.43792  -0.43057  -0.40288  -0.38754
 Alpha  occ. eigenvalues --   -0.38083  -0.36510  -0.34538  -0.33537  -0.26636
 Alpha  occ. eigenvalues --   -0.25914  -0.24480
 Alpha virt. eigenvalues --   -0.07566  -0.01174   0.03662   0.09183   0.11944
 Alpha virt. eigenvalues --    0.14399   0.15024   0.15442   0.16380   0.18234
 Alpha virt. eigenvalues --    0.18663   0.19704   0.21720   0.26160   0.27584

  Beta  occ. eigenvalues --  -19.12846 -10.27800 -10.21058 -10.21012 -10.20944
  Beta  occ. eigenvalues --  -10.20757 -10.20228 -10.20179 -10.18707  -0.98931
  Beta  occ. eigenvalues --   -0.86527  -0.78058  -0.75814  -0.72794  -0.64571
  Beta  occ. eigenvalues --   -0.61060  -0.55814  -0.51149  -0.46900  -0.45960
  Beta  occ. eigenvalues --   -0.44485  -0.43792  -0.43057  -0.40288  -0.38754
  Beta  occ. eigenvalues --   -0.38083  -0.36510  -0.34538  -0.33537  -0.26636
  Beta  occ. eigenvalues --   -0.25914  -0.24480
  Beta virt. eigenvalues --   -0.07566  -0.01174   0.03662   0.09183   0.11944
  Beta virt. eigenvalues --    0.14399   0.15024   0.15442   0.16380   0.18234
  Beta virt. eigenvalues --    0.18663   0.19704   0.21720   0.26160   0.27584

 Mulliken charges and spin densities:
               1          2
     1  C    0.362773   0.000000
     2  O   -0.561855  -0.000000
     3  C   -0.388468  -0.000000
     4  H    0.141000   0.000000
     5  H    0.140889   0.000000
     6  H    0.137092   0.000000
     7  C    0.069123  -0.000000
     8  C   -0.097074   0.000000
     9  C   -0.114146   0.000000
    10  C   -0.098941  -0.000000
    11  H    0.118093  -0.000000
    12  C   -0.103980  -0.000000
    13  H    0.120595  -0.000000
    14  C   -0.077592   0.000000
    15  H    0.115484  -0.000000
    16  H    0.115381   0.000000
    17  H    0.121625  -0.000000
 Sum of Mulliken charges =  -0.00000  -0.00000

 Dipole moment (field-independent basis, Debye):
    X=              3.5369    Y=              3.4549    Z=             -0.0023  Tot=              4.9443
 Quadrupole moment (field-independent basis, Debye-Ang):
   XX=            -50.3395   YY=            -49.5947   ZZ=            -54.0486
   XY=             -8.1801   XZ=              0.0041   YZ=              0.0052

 1\1\GINC-GRA64\FOpt\UB3LYP TD-FC\6-31G(d,p)\C8H8O1\RZK\10-May-2019\0\\
 #p opt td=(50-50,nstates=12,root=1) ub3lyp/6-31g(d,p) scrf=(iefpcm,sol
 vent=acetonitrile) guess=(core,mix,always) empiricaldispersion=gd3\\Ti
 tle Card Required\\0,1\C,-1.6285259902,-0.1296193873,0.0000923769\O,-2
 .2651966036,-1.2790265439,0.0011187221\C,-2.5793397369,1.0501240877,-0
 .0001666669\H,-2.4146381948,1.6652186581,0.8911816325\H,-2.4133089645,
 1.6656928404,-0.8909209378\H,-3.6171299201,0.711779087,-0.0010223905\C
 ,-0.2155810483,-0.0540232859,0.0000059221\C,0.5886282768,-1.2348407094

 Normal termination of Gaussian 16 at Fri May 10 12:13:06 2019.
